12
Lattice="50.0 0.0 0.0 0.0 50.0 0.0 0.0 0.0 50.0" Properties=species:S:1:pos:R:3:forces:R:3 Energy=-6306.363791258447
C		-85.0147		95.5225		-78.2144		1.2651438414602945		0.42182993636547417		-0.06969473806818367
C		-83.6466		95.252		-78.3345		0.888403546237671		-0.6801702643224544		0.5435321256371887
C		-83.1766		94.0085		-78.8226		-2.18252114878241		0.23133212378742085		-1.0933095121803436
C		-84.13		93.0727		-79.2712		-1.5650627121364042		-0.2611310547079144		1.3338115780973334
C		-85.5268		93.3379		-79.0664		0.5713009649544294		-0.597526062535019		-1.6013073985843362
C		-85.923		94.6067		-78.6882		0.4903767283116432		-0.8273216436745311		0.799486984117361
H		-85.3755		96.3994		-77.6923		-0.04705005585149084		0.7060264600270661		0.14470569464014615
H		-82.8798		95.8697		-77.8611		0.03402978395225295		0.6640813294247688		-0.0628255732785761
H		-82.1635		93.7662		-79.0579		1.37489554341987		0.05158152226030169		0.33771028134031417
H		-83.8607		92.0364		-79.4895		0.35477705817744737		-0.16565576278897517		-0.4970400505852848
H		-86.3752		92.6503		-79.3315		0.925148517931127		-0.06973047640158271		0.13047412463796185
H		-86.9336		94.7349		-78.4371		-2.1094421705185558		0.5266838411433828		0.03445653564848119
12
Lattice="50.0 0.0 0.0 0.0 50.0 0.0 0.0 0.0 50.0" Properties=species:S:1:pos:R:3:forces:R:3 Energy=-6306.468565023986
C		-86.3057		94.3406		-79.3992		2.06210404827325		-0.40602361712298446		-0.4133204592059444
C		-84.8987		94.3631		-79.7365		-1.7040882743368504		0.6881147158598423		0.3538092435401764
C		-84.3544		95.5847		-80.1628		-0.3578857789625393		-0.019771423055534962		-0.6655200673099081
C		-85.1326		96.7785		-80.1583		1.085145025637755		-0.662529411580189		0.9703546814674773
C		-86.4528		96.7365		-79.6811		0.41884930793793174		1.4586299443531945		-1.5569021336705613
C		-87.0336		95.4966		-79.4716		-1.5309580576612316		0.9826044451830444		0.13990205125481572
H		-86.8601		93.4629		-79.116		-0.028529731575234474		-1.0698960187080406		0.09064125809470401
H		-84.2808		93.4724		-79.6904		0.18218877861793276		-0.5221428102309572		-0.04559337166655848
H		-83.3731		95.5873		-80.6816		0.0036548230882542665		0.1067927222203222		0.5427495332688433
H		-84.5433		97.6812		-80.3797		-0.5226605275556501		0.3436380624327473		-0.21607658625577597
H		-87.0947		97.6542		-79.7436		0.3993245565159439		-0.46858894334352813		0.24788874234304048
H		-88.1366		95.5196		-79.4555		-0.007144221401624058		-0.4308276660079159		0.5520670567176285
12
Lattice="50.0 0.0 0.0 0.0 50.0 0.0 0.0 0.0 50.0" Properties=species:S:1:pos:R:3:forces:R:3 Energy=-6306.518299956607
C		-133.917		147.758		-122.838		0.868692698371696		0.39723913477350065		-2.1353163125229604
C		-133.787		147.512		-124.245		1.4908498773956451		-0.006624447194433427		1.2293564514136832
C		-132.495		147.666		-124.838		-2.446561869471693		-0.5420569295097761		-2.301478942581453
C		-131.385		148.019		-124.11		0.16737562508949932		-0.27144498346068985		1.0480022014471648
C		-131.537		148.294		-122.756		-1.130452902013621		-0.1601855352081746		0.8226162678505324
C		-132.809		148.236		-122.137		0.4185356333570193		-0.22518590177372275		-0.3075859516086708
H		-134.862		147.646		-122.362		-1.2006177405766736		-0.2148131461815107		0.6613753976548059
H		-134.574		147.034		-124.832		-0.41560282744755056		0.2273536502381399		-0.13660147475474274
H		-132.493		147.49		-125.974		0.47910933167701897		0.044167077920530935		1.3399195420965728
H		-130.383		147.867		-124.456		0.9566454567756059		0.2926695940009109		-0.841692875998315
H		-130.694		148.416		-122.092		0.7662405638643901		0.41587305038569716		0.20838801090111278
H		-132.913		148.48		-121.08		0.04578620440072596		0.04300843600952784		0.4130176346802078
12
Lattice="50.0 0.0 0.0 0.0 50.0 0.0 0.0 0.0 50.0" Properties=species:S:1:pos:R:3:forces:R:3 Energy=-6306.510218991261
C		-94.2351		103.499		-86.4215		-0.19057211745828578		1.4875643675598684		0.31317059327841074
C		-93.5284		104.514		-85.7059		0.6800688600153135		-2.255198623582696		-1.53365925860145
C		-92.1315		104.527		-85.7664		1.2260403454507518		1.2070325914445825		0.7416726965122669
C		-91.4396		103.472		-86.3955		0.5880753045224397		1.150522007388648		0.22260785667305968
C		-92.1709		102.507		-87.0456		0.67961907123511		-1.1080910411403737		-1.358979335229936
C		-93.5339		102.578		-87.2055		-2.235362408728481		-1.3445337466038572		0.7639488368074189
H		-95.3396		103.564		-86.3687		0.15851992318352962		-0.3341629817846317		-0.18879810772600747
H		-94.0663		105.18		-85.1049		-1.0192035839074074		1.569754461113855		1.0556581237921756
H		-91.5322		105.402		-85.3049		-0.8290950363420602		-1.2332845827638308		-0.4458917592010794
H		-90.335		103.462		-86.4747		-0.2137950921892313		0.00039286455707720846		0.29114523838180134
H		-91.6982		101.668		-87.5611		0.5507870073171935		-0.16130741034452978		-0.0747661875547259
H		-94.1007		101.72		-87.6989		0.6049177269011269		1.021312094155888		0.21389135429012768
12
Lattice="50.0 0.0 0.0 0.0 50.0 0.0 0.0 0.0 50.0" Properties=species:S:1:pos:R:3:forces:R:3 Energy=-6306.580668227206
C		-177.16		196.266		-163.19		0.3648196841287647		0.8951004471180891		1.5390085414913803
C		-177.823		196.577		-164.363		-0.4722487029497771		-1.1262766077901154		-0.39452595249273303
C		-177.092		196.937		-165.494		0.0634953456419178		0.1492957822001439		-0.38667251800587216
C		-175.71		197.074		-165.357		2.046422427532189		0.7392296857475835		0.26361078082518336
C		-175.031		196.917		-164.087		-0.5454775765256575		0.011322212553190302		-0.3719519756119016
C		-175.803		196.557		-162.951		0.15947642496706274		0.024259026445080514		-2.4485097371970967
H		-177.75		195.948		-162.343		-0.5006601637813889		-0.31712253304347027		0.6162390138571932
H		-178.898		196.333		-164.4		-0.005869057097121361		0.25567059731897834		-0.20273214967488698
H		-177.589		197.068		-166.478		0.1854120677581514		0.11848861890129786		0.2796745189122709
H		-175.083		197.442		-166.224		-0.5361114078057996		-0.5178843435516651		0.5370315027691219
H		-173.914		197.038		-163.96		-0.9157923250913835		0.12550953019717961		-0.391349457429339
H		-175.311		196.507		-161.998		0.15653328322304258		-0.35759241609629244		0.9601773297125549
12
Lattice="50.0 0.0 0.0 0.0 50.0 0.0 0.0 0.0 50.0" Properties=species:S:1:pos:R:3:forces:R:3 Energy=-6306.464002093198
C		-97.1886		106.902		-89.8493		-0.007461084150408058		0.5373675459471977		1.9261081197258554
C		-97.0237		107.145		-88.445		-0.4678748451623592		0.06662381249898852		-0.4492815015574314
C		-95.7267		107.258		-87.9249		0.3939352672614312		-0.33247772653213287		1.8027115220745271
C		-94.6306		106.883		-88.6943		-0.8937634220724655		0.6566065670057505		-2.2524428638342244
C		-94.7712		106.669		-90.0908		-2.6573176606601323		0.3921622859704017		2.7619467996030957
C		-96.067		106.712		-90.6282		0.8695095378336294		-0.6688085596253066		-1.4110661820978814
H		-98.1651		106.938		-90.3213		-0.5714549226093887		-0.21795215456138256		-0.05136133298891365
H		-97.8883		107.189		-87.7404		0.22498556141843837		0.3327422416213482		-0.5104249563293177
H		-95.4859		107.546		-86.8408		-0.7387562428186555		-0.4331528174054762		-1.0976399697470585
H		-93.6368		106.867		-88.3461		1.599366112882925		0.04163973497343831		1.0806280088284912
H		-93.9213		106.418		-90.6125		2.2411525843818123		-0.658537979671172		-1.8682893584013283
H		-96.2007		106.458		-91.6983		0.007679113695173421		0.2837869469342202		0.0691117147241861
12
Lattice="50.0 0.0 0.0 0.0 50.0 0.0 0.0 0.0 50.0" Properties=species:S:1:pos:R:3:forces:R:3 Energy=-6306.483419558065
C		-141.488		156.472		-131.756		-0.044313013733748886		0.03448954861257066		0.40824947251796406
C		-142.731		157.063		-131.717		-0.43072055385184366		1.0270163949649367		-0.04795415855339287
C		-142.83		158.48		-131.84		-0.4955829550238529		-1.6931125950624746		0.24725414267041093
C		-141.66		159.267		-131.889		-2.102691070784321		1.4609877487604073		-1.118420447933945
C		-140.432		158.655		-131.839		2.0818354135421404		-0.09880661881235416		0.12157378838179017
C		-140.353		157.259		-131.732		1.6573477793012763		-0.4424067317630173		0.19983559631944167
H		-141.449		155.401		-131.764		0.352141626055096		-1.0848342306923393		0.21765359806682888
H		-143.59		156.397		-131.533		-0.2955339057232034		0.32833573082427786		-0.3988827895774818
H		-143.889		158.759		-131.953		0.22869247505594908		1.0490555309742815		0.1572274810660455
H		-141.784		160.364		-132.145		0.30368815927536547		-0.8257772848731305		0.49084790866982364
H		-139.469		159.24		-131.929		-0.8250126388045785		-0.3262399218252208		0.23820262555065197
H		-139.377		156.729		-131.546		-0.42985136673034163		0.571292480314126		-0.5155872686001997
12
Lattice="50.0 0.0 0.0 0.0 50.0 0.0 0.0 0.0 50.0" Properties=species:S:1:pos:R:3:forces:R:3 Energy=-6306.434954513424
C		-111.939		126.169		-105.877		-1.3650573715888326		0.26938208458159735		0.4701293940681829
C		-112.296		127.303		-105.135		-2.0104612823365766		-1.3172942974194841		0.39366134193478847
C		-113.616		127.307		-104.592		1.6894545323842867		0.7831076174109881		-1.0162612134943236
C		-114.542		126.366		-104.992		-1.503468285876878		1.292839198650302		2.096582078343833
C		-114.208		125.323		-105.793		-0.33067733728182036		-1.779772191440026		-0.36599874059855825
C		-112.908		125.158		-106.152		2.686586841493322		0.8418811321689248		-1.1997878399108792
H		-110.946		126.137		-106.237		1.5406728679644643		-0.4470694272751869		-0.7680904725608367
H		-111.695		128.168		-104.933		1.0288641953568232		0.4917724259305161		0.09462801059603858
H		-113.872		128.149		-103.964		-0.4699142441589145		0.40937792967831216		0.4949409505742312
H		-115.513		126.477		-104.496		-0.492151252264546		-0.24513287975044382		-0.3189274988573403
H		-114.842		124.492		-106.084		-0.9375228773039975		-0.05675309050242366		0.0005194656748159633
H		-112.631		124.335		-106.823		0.16367426503473265		-0.24233845061101364		0.11860457565211055
12
Lattice="50.0 0.0 0.0 0.0 50.0 0.0 0.0 0.0 50.0" Properties=species:S:1:pos:R:3:forces:R:3 Energy=-6306.451252945938
C		-116.335		131.713		-108.82		-0.6699847364596033		-1.0239164159304603		0.2839897555485019
C		-115.861		130.475		-109.191		1.235382500067448		-0.3201900133344816		-0.7757954515534197
C		-116.764		129.5		-109.549		-1.129927677067811		-0.34505386607803623		0.16050491763801839
C		-118.141		129.727		-109.458		-0.3736463839915156		0.9247022772732322		-0.6104955294365616
C		-118.649		131.001		-109.132		0.5032625315175883		-0.7714570749890887		1.3737063568037748
C		-117.691		131.913		-108.683		-0.5014289236149366		-0.6034213963060496		-1.14714938857909
H		-115.717		132.505		-108.552		1.7078619852334767		1.6739646645140815		0.6579974823728162
H		-114.791		130.241		-109.295		0.12232460191554469		0.23156156903004893		0.09767029407645204
H		-116.456		128.54		-109.917		0.5050302677582484		-0.9164082071332832		-0.1549645503640433
H		-118.821		128.945		-109.736		-0.6433160207463036		-0.8185558275337146		-0.27617437338785017
H		-119.716		131.223		-108.94		0.10671060118659809		-0.22716714241765312		-0.38247370091901584
H		-117.99		132.817		-108.262		-0.8622686429546095		2.1959414329054043		0.7731841363783551
12
Lattice="50.0 0.0 0.0 0.0 50.0 0.0 0.0 0.0 50.0" Properties=species:S:1:pos:R:3:forces:R:3 Energy=-6306.504701137347
C		-176.357		195.824		-163.687		-1.8617885812670747		-0.7693640942034661		2.2341220057381905
C		-176.335		195.172		-162.384		-3.71363187854704		2.2642915868847853		-0.8898324625088835
C		-175.191		194.762		-161.766		-0.33532064667644834		-1.2186580913220715		1.2006120841498047
C		-174.029		194.781		-162.501		2.8540430449546714		0.22872019154760675		-0.588713452317378
C		-173.979		195.405		-163.76		-0.9707527396528612		0.14020708692923747		0.4058273905326957
C		-175.166		195.946		-164.317		1.810022710912909		-0.2805233943191074		-1.0415313519532536
H		-177.316		196.255		-164.116		0.8669817835100373		-0.550410752086286		0.4575809710139372
H		-177.344		195.231		-161.833		1.2692742672040995		-0.43762139463191724		-0.44219322735974714
H		-175.242		194.34		-160.734		0.14100320330000568		0.15982064425306727		-0.4600611085077056
H		-173.052		194.39		-162.086		-0.8259044516335562		0.2574241924924662		-0.1634635374228344
H		-173.048		195.563		-164.29		0.5896135440984093		-0.20696613945245548		-0.2594940847720511
H		-175.133		196.388		-165.309		0.17645964095272332		0.41308016390814045		-0.4528531751707126
12
Lattice="50.0 0.0 0.0 0.0 50.0 0.0 0.0 0.0 50.0" Properties=species:S:1:pos:R:3:forces:R:3 Energy=-6306.462948872079
C		-25.7266		29.4228		-24.5494		-1.1709422226060473		0.9960630901646229		-0.8559877465593686
C		-26.9978		28.9059		-24.1744		0.4335147258809617		1.1176402724025345		-1.6497005987068813
C		-28.1577		29.4799		-24.7815		0.44131375582575605		-1.2841711872722554		2.048628382589002
C		-28.0679		30.5689		-25.6106		-2.66806682574944		0.7861985975845367		-0.2082765792917952
C		-26.8843		31.1517		-25.9039		2.302921331433026		2.0824778293682615		-1.4845763857773966
C		-25.7376		30.5887		-25.3707		1.6157436798171125		-0.8293380055871111		0.23657285470353087
H		-24.7304		28.9949		-24.3827		-0.13245449110683058		-0.26780697538685494		0.7049769357325706
H		-27.0888		28.0869		-23.4957		-0.12593088257685114		-1.008335942386228		0.6995556619552172
H		-29.1467		29.1302		-24.4391		0.0367976793074617		-0.09969668329120879		-0.19994368549470035
H		-28.9946		31.0911		-25.9024		-0.11068506381500835		-0.28957023203118387		-0.3160374761038255
H		-26.738		32.0629		-26.6053		-0.5696074821719393		-1.1933930436473235		1.0639866467139627
H		-24.7559		31.0241		-25.6301		-0.05260420423820109		-0.010067719917790359		-0.03919800976031603
12
Lattice="50.0 0.0 0.0 0.0 50.0 0.0 0.0 0.0 50.0" Properties=species:S:1:pos:R:3:forces:R:3 Energy=-6306.408327703203
C		-86.1504		94.2985		-79.0388		0.9967151733384839		0.9232480613472972		-1.508669216116656
C		-84.7818		94.2984		-79.4088		-0.9230068404523694		2.630855507371673		-0.054270947548219886
C		-84.2499		95.4715		-80.0595		-1.0390312112771942		-1.435351588060996		-0.23615150232385934
C		-85.1034		96.5871		-80.3177		3.4664991947881227		-0.39733035751227747		-0.22555824892788456
C		-86.374		96.5959		-79.8871		-2.560223756481623		-0.6135144158785628		0.3624456303498195
C		-86.9324		95.4136		-79.378		-0.06850251755040422		-0.22192029227611212		0.9567656815576016
H		-86.5439		93.3593		-78.7009		-0.7102178723369303		-0.6203152921692439		0.702367728862066
H		-84.2142		93.4892		-79.0078		1.1335208965252566		-1.0089511045192534		-0.21746801584346606
H		-83.2927		95.3563		-80.5868		0.39491871420568536		0.4209141094333347		0.3849964673025509
H		-84.6848		97.4852		-80.784		0.18513408008857557		0.09112616814355717		-0.259145751721051
H		-87.0267		97.4562		-80.0495		-0.14381742993347707		0.28792045800177185		-0.025062958969340337
H		-87.9857		95.4103		-79.1301		-0.7319884309141264		-0.056681305303250926		0.11975113337843916
12
Lattice="50.0 0.0 0.0 0.0 50.0 0.0 0.0 0.0 50.0" Properties=species:S:1:pos:R:3:forces:R:3 Energy=-6306.553190152878
C		-113.673		128.198		-106.514		0.46828246785135796		-0.3213411990464302		-0.5408059849966849
C		-113.855		127.846		-107.845		0.6889791721515994		0.37538444970214513		0.4185899864770234
C		-115.135		127.886		-108.329		-1.4932351411842033		-0.6686767134571985		-0.296142948630798
C		-116.262		128.126		-107.524		1.2306727533681414		0.5035600081488306		1.8919095171425968
C		-116.052		128.492		-106.145		-1.2031687890945533		-1.0132260262585275		-0.782680300072073
C		-114.732		128.486		-105.675		-0.3906918720947966		0.7238123744074878		0.04643772193189982
H		-112.658		128.21		-106.17		0.9313245133189807		0.06892186446964042		0.7340353375317985
H		-112.995		127.549		-108.459		-0.010581117789237853		0.06250002020123896		-0.17349932423984663
H		-115.295		127.535		-109.327		-0.31049124671473166		-0.18235605458706525		-1.2325998465803176
H		-117.258		127.925		-107.882		-0.7525087134650431		0.16408996098753525		-0.43502977410676885
H		-116.961		128.581		-105.461		1.0701495808979553		0.18984382678788203		-0.6200133932406312
H		-114.447		128.8		-104.684		-0.22873160724546943		0.09748743722239882		0.9897990602058642
12
Lattice="50.0 0.0 0.0 0.0 50.0 0.0 0.0 0.0 50.0" Properties=species:S:1:pos:R:3:forces:R:3 Energy=-6306.523799159647
C		-133.625		147.702		-122.681		2.581160403472154		-0.28442375775553486		-0.3748279087203066
C		-133.264		146.579		-123.44		-1.498591366052564		-0.6777503420638086		0.029967852395624307
C		-131.961		146.32		-123.848		0.9739971118386825		-0.147158475596694		-1.0561227735484255
C		-131.008		147.34		-123.648		0.07193000370059063		0.5663708232954852		-0.5394307533586649
C		-131.358		148.513		-122.946		1.4833693042835707		-1.191515932679844		0.06746307198014784
C		-132.596		148.617		-122.361		-1.5835453954629508		0.7197197953016422		0.10454449822817918
H		-134.597		147.779		-122.283		-1.681403945710013		0.3531372086060871		0.5311683592091816
H		-134.087		145.893		-123.75		0.40133191956759606		-0.0063746902371397095		0.2712932883764781
H		-131.716		145.376		-124.425		-0.18051272791461145		0.8693386108980635		0.46657206721032374
H		-130.021		147.434		-124.147		-0.09382587784396432		-0.8832991866311645		0.19698727685856945
H		-130.503		149.175		-122.741		-0.3656926764828877		0.5200386194357218		0.0025765538608521735
H		-132.827		149.505		-121.765		-0.10821665055147728		0.16191737884924834		0.2998084675080407
12
Lattice="50.0 0.0 0.0 0.0 50.0 0.0 0.0 0.0 50.0" Properties=species:S:1:pos:R:3:forces:R:3 Energy=-6306.577721273303
C		-111.295		125.41		-105.062		0.9156128106713891		0.09586260289327245		0.10819253360419075
C		-111.952		126.346		-105.835		-0.9642568476145396		-0.018330268333460898		-0.1674058612622168
C		-113.345		126.452		-105.725		0.9044568970681449		-0.04302741075056992		0.8361290602638654
C		-114.0		125.814		-104.687		0.4347537404755659		-1.4278798081215995		0.6664917386018623
C		-113.343		124.916		-103.803		0.930188240005141		0.9467335971290852		-1.4645471325007642
C		-111.98		124.674		-104.085		-0.5218939274487251		0.21346470543802434		0.39693728726695043
H		-110.2		125.394		-105.235		-0.161067012202601		-0.6114316166613043		0.4015911381843797
H		-111.393		126.975		-106.511		0.31694456128534926		0.3535737819162423		-0.626720218579101
H		-113.911		127.116		-106.325		-0.7113017465691389		0.9729115921004755		-1.0881566615689517
H		-115.06		125.877		-104.632		-1.4533708557607916		0.42191185171094836		0.27599167079998427
H		-113.835		124.487		-102.934		-0.29185044054616743		-0.3947444448360604		0.16026158843853028
H		-111.466		123.937		-103.491		0.6017845806363736		-0.5090446339071157		0.5012348567512703
12
Lattice="50.0 0.0 0.0 0.0 50.0 0.0 0.0 0.0 50.0" Properties=species:S:1:pos:R:3:forces:R:3 Energy=-6306.523408329402
C		-27.9437		32.8784		-27.0143		-0.8117779883270088		-0.07583545792120018		0.9501479192312858
C		-28.8388		32.4653		-25.9793		0.6628511594249052		0.7719414193952548		0.11961759028227038
C		-30.2028		32.3629		-26.2576		-1.8115999284122113		0.1882114334155763		-0.49074742995980675
C		-30.7142		32.6063		-27.567		1.5415476086687103		-0.5065238729840159		-0.580230200409695
C		-29.7828		32.8279		-28.6308		-0.9756055939519515		-0.38930136810423055		1.845714661611623
C		-28.4421		33.0544		-28.3153		0.6359048674185293		-0.7917437985323814		-1.0672003199285043
H		-26.9044		33.0629		-26.7111		0.19924192860851803		-0.04892073906116516		-0.37436171630218323
H		-28.4691		32.3571		-24.9215		-0.1934302071110225		-0.1105694155965703		-0.7787972658706894
H		-30.9821		32.1011		-25.4955		0.7102993763059052		0.10982718954724406		-0.08769004308688004
H		-31.7586		32.4756		-27.8772		-0.2539997916660265		-0.07881351524562026		0.4776634975472623
H		-30.1238		32.6339		-29.6455		-0.053884665015135606		0.5654178182121982		-0.5711705586040697
H		-27.802		33.1311		-29.2203		0.3504531826347256		0.36631035829697295		0.5570539683335116
12
Lattice="50.0 0.0 0.0 0.0 50.0 0.0 0.0 0.0 50.0" Properties=species:S:1:pos:R:3:forces:R:3 Energy=-6306.423383373951
C		-87.451		96.4228		-81.5351		0.24575272129115172		0.3307726737855927		-0.45962180982824086
C		-86.0729		96.5949		-81.8144		-1.6886374358120408		0.7000196946467179		-1.437649742875773
C		-85.1542		96.7526		-80.8132		1.040881017129516		-0.6339107198369254		0.5537406905840149
C		-85.5207		96.4239		-79.4919		-1.2960451071334145		0.7019863314249138		-1.550987773736426
C		-86.8642		96.1698		-79.2048		-1.2979455122951817		0.029191584940959702		-0.492528947313202
C		-87.892		96.2236		-80.2036		2.167274404423443		-0.04449473930242832		-1.2034451826801933
H		-88.0596		96.6268		-82.4664		-0.2765408070048308		-0.6651579531461728		1.1126669362111368
H		-85.8808		96.7867		-82.8936		0.5117634726147523		-0.0008422933828435438		0.4387987027515878
H		-84.1467		97.0937		-81.0893		0.2381221500229261		-0.1611910422172175		0.24861070809976354
H		-84.8257		96.5524		-78.7149		1.2804345002605892		-0.008932886421699138		1.4949984037054307
H		-87.182		96.0226		-78.1759		-0.017838621994427498		-0.21147400313460418		0.54726387613086
H		-88.9429		96.0545		-80.071		-0.9072208329245454		-0.03596664735629354		0.7481541389510418
12
Lattice="50.0 0.0 0.0 0.0 50.0 0.0 0.0 0.0 50.0" Properties=species:S:1:pos:R:3:forces:R:3 Energy=-6306.6019469386265
C		-109.742		124.095		-103.396		0.2247711314180441		0.48863568012139186		-1.2272526719949473
C		-110.422		123.481		-102.345		-2.0591466626179327		0.3145150745230888		-0.5321952577962016
C		-111.863		123.341		-102.384		0.8033347942059701		0.6465838928146617		-0.3413829993062992
C		-112.575		123.809		-103.536		1.7185035239460873		-1.3575346323855535		2.6891297139032724
C		-111.822		124.33		-104.555		-1.5046594779534086		0.47572704551972134		-2.674803887260627
C		-110.452		124.501		-104.562		0.7100463797586773		-0.19456041262149368		1.2797966609980258
H		-108.649		124.303		-103.393		-0.2950984122763596		-0.3318330481352641		0.3120695954994081
H		-109.877		123.162		-101.483		0.5207556486744501		-0.3932715627014579		1.0071500982041914
H		-112.403		122.955		-101.493		0.19226488033190156		-0.08220495453003297		-0.32757776962384355
H		-113.632		123.646		-103.608		-1.0043985036427776		0.07012827747665461		-0.13267766285784044
H		-112.444		124.531		-105.463		0.6206516953017568		0.34087417799840924		0.10240883713072754
H		-109.934		124.961		-105.409		0.07297500285359103		0.022940461919874516		-0.15466465689586606
12
Lattice="50.0 0.0 0.0 0.0 50.0 0.0 0.0 0.0 50.0" Properties=species:S:1:pos:R:3:forces:R:3 Energy=-6306.65484868932
C		-74.4021		84.5302		-71.0667		0.20689106324128623		-0.00040170915181769013		-0.48648829479370276
C		-74.3663		84.3959		-69.6747		2.3420036929749037		-0.18445273776118382		0.5774784001600315
C		-75.4903		84.1568		-68.9184		-2.470780169643317		0.49491297697226133		-1.4404668491447412
C		-76.7427		84.06		-69.6075		1.2423896302505948		-0.6069459158880691		-0.5855350546376735
C		-76.7606		84.0218		-71.0218		0.1809231273949823		0.5900268746363395		1.0980278463640785
C		-75.6138		84.3216		-71.7429		0.7319397856430537		0.2629851285914191		-0.2770365156867973
H		-73.4959		84.8076		-71.6475		-0.1950236225599952		-0.19099722364851582		0.28734597072014006
H		-73.3811		84.4047		-69.1129		-0.6748987830130024		0.33342502376648836		-0.6478184851118957
H		-75.4901		84.2395		-67.8532		0.1782418782149928		-0.2690245984034821		1.199034146741628
H		-77.6855		83.9245		-69.1016		-0.5752799527243349		-0.0856236989296038		0.6431713704846468
H		-77.6775		83.8933		-71.5653		-0.9684042940610136		-0.19053689334551122		-0.31951263050589807
H		-75.658		84.453		-72.8347		0.0019976442818501828		-0.15336722683832482		-0.04819985316775346
12
Lattice="50.0 0.0 0.0 0.0 50.0 0.0 0.0 0.0 50.0" Properties=species:S:1:pos:R:3:forces:R:3 Energy=-6306.6934255071055
C		-126.137		140.603		-116.759		-0.019557867230202287		0.03813439582071067		0.10944769472640249
C		-124.775		140.892		-116.752		0.3452394997234614		-0.9096081535956012		0.33778139805267515
C		-123.812		139.862		-116.522		-0.8875651095095111		1.6369960068489913		-0.5031419467811555
C		-124.245		138.564		-116.36		-0.08781731269143059		-0.199529069405209		-0.09343712705188269
C		-125.627		138.294		-116.337		1.1415928233554449		-1.391532791769403		-0.04375097059122873
C		-126.554		139.289		-116.509		-0.26708027880038704		0.7625790559080181		0.307421760963285
H		-126.866		141.407		-116.925		-0.10509795388627106		0.06224244709045366		0.08258223820218946
H		-124.491		141.926		-116.837		0.521013993116172		0.8079837086054046		-0.2683361084094105
H		-122.758		140.126		-116.528		0.5075383788539867		0.021715177015943145		0.07803462526577098
H		-123.466		137.808		-116.261		-0.05001520623823732		-0.5956572819416551		0.13500476829377353
H		-125.946		137.249		-116.232		-0.14519893506311535		-0.0983661374254532		0.24766371939778267
H		-127.581		139.067		-116.266		-0.953051980207848		-0.13495730573013714		-0.38927005206820176
12
Lattice="50.0 0.0 0.0 0.0 50.0 0.0 0.0 0.0 50.0" Properties=species:S:1:pos:R:3:forces:R:3 Energy=-6306.496420199437
C		-49.8073		54.6333		-45.8563		-1.6800551964341521		-1.668557480381838		0.8130625628689389
C		-48.5965		55.0426		-46.3633		0.9969595824012831		1.0682545750527448		-0.5028280150899309
C		-47.4028		54.7554		-45.6827		-0.3755969770862289		-0.9186342167944501		0.2365295573269525
C		-47.4161		53.8019		-44.668		-0.36507000672874523		0.7523329014335447		0.07514491104463082
C		-48.641		53.2929		-44.208		1.8493069040498822		-0.7953513647452491		0.7761480526356029
C		-49.8191		53.6857		-44.7449		-2.254767809543535		1.421715691230171		-1.527801617202191
H		-50.8008		54.9121		-46.3044		0.7643761027242716		-0.11770782630513814		0.12409984577732168
H		-48.4105		55.6382		-47.2817		-0.8222980681281248		0.1561854643926669		0.2307322854290039
H		-46.5204		55.2935		-45.9789		0.9730285258704746		0.09068424693890775		-0.32499206263587627
H		-46.5416		53.4894		-44.1203		0.8863072230179896		-0.04692304335725254		0.1828959348206717
H		-48.5252		52.5918		-43.3758		-0.5396429207883116		-0.30180215229108265		0.18836096877316538
H		-50.7945		53.2876		-44.3544		0.5674525892231335		0.35980320482697575		-0.2713524751703519
12
Lattice="50.0 0.0 0.0 0.0 50.0 0.0 0.0 0.0 50.0" Properties=species:S:1:pos:R:3:forces:R:3 Energy=-6306.535103728351
C		-176.605		196.595		-163.4		1.0332300827245622		0.4769455427114101		0.16778257929168638
C		-176.744		195.306		-162.919		1.4679253563151282		-0.47451528461821296		-0.6223436354223736
C		-175.691		194.371		-162.87		0.3063336701219559		0.332803742408032		0.3423605327133722
C		-174.405		194.788		-163.308		-2.3348358688466173		1.4068752325865792		-0.6800390352190956
C		-174.289		196.08		-163.933		-0.1474603231032442		-1.3228572904009348		1.3427815398260554
C		-175.343		197.008		-163.89		0.12311002249732442		-0.5149932923569015		-0.2139018443908664
H		-177.454		197.247		-163.215		-0.24681695229550646		0.6463756334617607		-0.3779044392943081
H		-177.683		195.023		-162.559		-2.0017734220424264		-0.6833638829326425		0.8205593339306835
H		-175.937		193.392		-162.38		0.5842976341270053		0.4282626821111138		-0.3888074077723871
H		-173.557		194.174		-163.161		1.3321415951973807		-1.011874088814795		-0.05240710347285071
H		-173.303		196.338		-164.314		0.3419973386863256		0.3873392050454672		-0.18193958730332593
H		-175.08		198.017		-164.222		-0.4581491333818883		0.32900185222118594		-0.15614098430865225
12
Lattice="50.0 0.0 0.0 0.0 50.0 0.0 0.0 0.0 50.0" Properties=species:S:1:pos:R:3:forces:R:3 Energy=-6306.415780688837
C		-177.645		196.137		-164.394		-2.6163389048773578		-0.0047491874212015365		-1.2331672890393945
C		-178.311		197.365		-164.845		-0.21409210602191164		-1.9771486304671773		2.005050395815837
C		-177.586		198.508		-165.023		0.7418305108219096		1.6988756712888977		-0.5809083031471527
C		-176.179		198.438		-164.857		-0.7026112123277415		0.9117176922853311		-0.17957797766349243
C		-175.588		197.217		-164.634		0.5693669811858857		-1.2702327744480681		-0.2886411382069337
C		-176.291		195.976		-164.486		0.9473942163653118		2.3383793117476164		0.32044609520545597
H		-178.267		195.256		-164.122		-0.03969006747584899		0.31298881628766884		-0.147548306252087
H		-179.403		197.465		-164.732		-0.06030440097897682		-0.3598812635177668		-0.36165157086154914
H		-178.076		199.492		-165.304		0.36720525644969737		-0.8821746889696245		0.3462942176462639
H		-175.58		199.37		-164.878		-0.014755046597870969		-0.28579677824486976		-0.16463986852331847
H		-174.512		197.194		-164.625		1.0037466261571666		-0.07633260642091516		0.1596806219770305
H		-175.737		195.057		-164.309		0.01824819872179922		-0.40564561354195383		0.1246630202052156
12
Lattice="50.0 0.0 0.0 0.0 50.0 0.0 0.0 0.0 50.0" Properties=species:S:1:pos:R:3:forces:R:3 Energy=-6306.428409477836
C		-177.414		196.133		-163.738		-1.3798988072516107		-0.14947215987432907		1.3248820855317558
C		-178.117		196.965		-164.606		1.550412309435608		-0.11652871841328206		-1.1226251785579824
C		-177.34		197.864		-165.385		-0.9558800393761171		-0.5965995398138911		1.1543518711774639
C		-175.985		197.957		-165.164		0.7654793630740218		-0.8524458463202429		-0.022303753942684728
C		-175.286		196.984		-164.384		-0.5654493913585392		2.7607060880804313		-1.4799888178984586
C		-176.016		196.157		-163.621		-1.756327896152319		-1.7878393874404697		1.0909961364350833
H		-178.009		195.55		-162.987		0.3867905830612451		-0.09904943379121785		-0.5983652191720535
H		-179.155		196.814		-164.858		-0.8873204433363993		0.06687655193590404		0.2881625530717613
H		-177.834		198.516		-166.081		-0.38695611068025454		0.7056760700935681		-0.6047174379679049
H		-175.478		198.78		-165.637		0.8000948957395817		0.4231010897491061		-0.5427134349810071
H		-174.233		197.047		-164.351		1.7383643699682132		-0.023991168921806274		0.20690268462739875
H		-175.623		195.451		-162.9		0.6906912182986319		-0.3304334938617077		0.3054185116766283
12
Lattice="50.0 0.0 0.0 0.0 50.0 0.0 0.0 0.0 50.0" Properties=species:S:1:pos:R:3:forces:R:3 Energy=-6306.551976638886
C		-80.4332		89.3151		-76.345		-2.001209527705658		-1.0850255721866962		0.0652296575419889
C		-79.4479		89.9758		-75.6737		-0.17150363399636934		1.7281331793139114		1.6108308673932115