12
Lattice="50.0 0.0 0.0 0.0 50.0 0.0 0.0 0.0 50.0" Properties=species:S:1:pos:R:3:forces:R:3 Energy=-6306.572074696565
C		-64.4338		71.5552		-59.5377		-1.417855899801012		-1.0687733208186867		1.1997232538004488
C		-65.8348		71.6206		-59.781		-0.5418097950776671		-0.9580054160610797		0.9951057142060282
C		-66.3656		72.5328		-60.6752		-0.2376731325736593		0.5128176763169303		-0.6816892206250073
C		-65.4993		73.3196		-61.4358		0.8886919211638608		0.5781939895810113		-0.5311504129093885
C		-64.1187		73.2763		-61.2376		-0.45075515502297037		-1.3633009482019103		0.837824137130291
C		-63.6259		72.3951		-60.2668		0.025801842584607666		0.5442768199455121		-0.03548621102687308
H		-64.0362		70.8871		-58.7068		-0.29524712488094956		0.5792496845230002		-0.9589094159188569
H		-66.6175		70.9781		-59.2849		0.964720623195728		0.22850041365271828		0.07708815078441456
H		-67.4547		72.6558		-60.8038		0.07807051786535736		-0.22272695016968158		-0.019940807329227674
H		-65.7915		73.9861		-62.2357		-0.8586695099599826		0.439158965721075		-0.36196395989090047
H		-63.3691		73.7921		-61.8056		0.26883814200505773		0.8913098183629186		-0.6990196897983565
H		-62.5952		72.4566		-60.0197		1.5758875190795674		-0.16070068142974525		0.17841846157742777
12
Lattice="50.0 0.0 0.0 0.0 50.0 0.0 0.0 0.0 50.0" Properties=species:S:1:pos:R:3:forces:R:3 Energy=-6306.405737632883
C		-157.02		177.022		-147.362		-1.4898830911996228		-2.5960032275306175		1.131797948900986
C		-156.34		175.915		-146.779		-1.5013305164748663		-0.4744134689345725		-0.03073774351454577
C		-157.117		174.783		-146.33		2.8183118078002494		0.9766355264406554		0.11478119104316273
C		-158.474		174.822		-146.342		-0.4719736977598232		-2.189715712383167		0.4065496648217933
C		-159.138		175.897		-146.884		-2.076242698608597		-0.2181298692091913		-0.6233759333259501
C		-158.459		176.946		-147.469		1.6124796129813752		1.963257114563939		0.6353983601034493
H		-156.518		177.931		-147.556		0.8573466774035937		1.329152225019223		-0.662586541491565
H		-155.268		175.892		-146.597		0.5012421586841376		0.19563184271459064		-0.14488587754695223
H		-156.649		173.896		-145.853		0.25905247209977633		0.34623971026007255		-0.27891362665427727
H		-158.901		173.856		-145.957		-0.6185785120101754		0.9753939921649915		-0.21110217020106686
H		-160.244		175.821		-146.902		0.13882100523604163		0.4187010067098414		-0.04264894437097722
H		-158.967		177.909		-147.729		-0.029245166730027045		-0.7267491912378272		-0.29427643060818165
12
Lattice="50.0 0.0 0.0 0.0 50.0 0.0 0.0 0.0 50.0" Properties=species:S:1:pos:R:3:forces:R:3 Energy=-6306.4930253914945
C		-103.753		115.468		-98.1461		-0.22670892041920873		0.07480753089293139		1.4638192532068597
C		-105.058		115.735		-97.7055		-2.2011427230996197		0.15081268162019895		-0.523770009974956
C		-105.304		116.18		-96.3802		-0.5261688491879996		0.3903675017248957		-0.44427067868251147
C		-104.26		116.479		-95.5149		0.6181563368775048		-1.0947767378880773		-2.2472349916160166
C		-102.965		116.254		-95.9496		1.028082785695914		-0.012337284065847906		-0.6791255222797662
C		-102.703		115.698		-97.2376		-0.2293212640355224		0.1598961832627985		0.9034547839152233
H		-103.601		114.976		-99.0904		0.2831780068707505		-0.19664079500181733		-0.8600246355715868
H		-105.982		115.597		-98.4168		1.603930335145513		0.09550763639621694		1.1252548514093397
H		-106.29		116.423		-95.9527		-0.3640714416981324		-0.3401073722032345		-0.5810422576198211
H		-104.427		116.759		-94.5321		-0.5520297243002937		1.0036460960250873		2.3943206021502266
H		-102.151		116.578		-95.2757		0.1839728156523878		-0.4400669764997229		-0.1616566689926539
H		-101.69		115.34		-97.43		0.38212259107664376		0.20889148431450844		-0.389724674522275
12
Lattice="50.0 0.0 0.0 0.0 50.0 0.0 0.0 0.0 50.0" Properties=species:S:1:pos:R:3:forces:R:3 Energy=-6306.4990706887165
C		-146.142		163.339		-137.436		-0.3056751591902896		1.1917571021527091		1.4691696673821644
C		-147.45		162.882		-137.553		-0.1902785489037892		2.6295462502397697		0.4529062427391555
C		-148.562		163.701		-137.231		-0.3024574750548774		-1.0363977331932157		-0.597513104175283
C		-148.332		164.964		-136.735		0.8527189488938864		1.9340397157476323		0.6179606759299028
C		-146.984		165.434		-136.537		-1.217951912138519		-0.8005530148939012		0.09315893369405706
C		-145.892		164.617		-136.866		-0.8476556240932106		0.25003530491773046		0.27564729724779236
H		-145.35		162.628		-137.474		1.1375313545973782		-0.7746372210189164		-0.6232988516543455
H		-147.607		161.945		-137.948		-0.5301952995215414		-2.800685044703094		-0.9724053933177704
H		-149.597		163.302		-137.387		0.5321426016042582		0.26493201929763643		0.1381137976112402
H		-149.135		165.691		-136.451		0.15425770269367903		-0.6444103336571884		-0.16771454790307205
H		-146.865		166.365		-135.962		0.21821121891197875		0.16393276374264193		-0.28520825274019057
H		-144.93		165.01		-136.517		0.49935219220104643		-0.37755975720974166		-0.4008165162357133
12
Lattice="50.0 0.0 0.0 0.0 50.0 0.0 0.0 0.0 50.0" Properties=species:S:1:pos:R:3:forces:R:3 Energy=-6306.60407420258
C		-18.7036		20.6465		-15.6676		-1.2235317715564515		-0.8643615723181696		-0.46835517864765475
C		-19.5698		20.0902		-16.6466		0.49909060816939055		0.3711670178286838		0.43720395032899145
C		-19.0676		19.7392		-17.8898		1.4008984976906984		1.0093621210643733		-0.7748353502255155
C		-17.7009		20.0171		-18.2737		-1.1363583659309529		-0.8732724500971424		1.7787074976371096
C		-16.8512		20.475		-17.2605		-0.05324008946239177		1.4274414864613214		0.20043841715748043
C		-17.385		20.8742		-15.9958		0.23475899287285792		-0.9657666507899774		-1.0836493635294897
H		-19.089		20.7473		-14.6463		0.024176288346607056		0.546960074585937		0.14309027054844714
H		-20.6469		20.0203		-16.4708		-0.2033530196568438		-0.3140214227236201		0.2426782475996479
H		-19.7668		19.3877		-18.6232		-0.5600444697970434		-0.48240630863272077		-0.8334602552229874
H		-17.303		19.7606		-19.2504		0.018636126760881742		-0.11154417221227132		-0.52061639772935
H		-15.7944		20.7316		-17.4804		-0.18158981443457736		-0.24078072207337753		0.03131202510792774
H		-16.7816		21.3119		-15.2388		1.1805569655757626		0.49722265032902574		0.8474861883974556
12
Lattice="50.0 0.0 0.0 0.0 50.0 0.0 0.0 0.0 50.0" Properties=species:S:1:pos:R:3:forces:R:3 Energy=-6306.458102502106
C		-107.753		120.933		-101.628		0.7623251851857288		0.6929698841517422		0.9684335017924824
C		-108.916		120.208		-101.805		-1.1662307275566175		0.4449063582184523		0.18070412083103052
C		-110.169		120.815		-101.611		-0.6506874248198081		-2.2730067008720316		-0.443309394647171
C		-110.293		122.168		-101.375		-0.14412256845202367		-0.7028378293569351		0.3269505233061436
C		-109.128		122.902		-101.25		1.759986987271756		1.4807765524730483		0.4717722775412273
C		-107.835		122.307		-101.231		-1.8109303617371195		-1.3740266134086803		-1.587501448993006
H		-106.804		120.38		-101.667		0.27964747090742503		0.23818354796548502		-0.09749916145263621
H		-109.0		119.155		-102.023		0.6827889842745111		-0.816490717505937		-0.2373553442277513
H		-111.029		120.059		-101.661		0.5327703621425826		1.3170950883495733		0.08419236582145667
H		-111.285		122.507		-101.138		-0.747754383837597		0.9445882172618314		-0.14098541126639982
H		-109.124		124.014		-101.161		-0.3599401932013284		-0.3971947575336109		0.2734526550447167
H		-106.97		122.929		-101.109		0.8621466184004283		0.4450369702570617		0.20114526482784476
12
Lattice="50.0 0.0 0.0 0.0 50.0 0.0 0.0 0.0 50.0" Properties=species:S:1:pos:R:3:forces:R:3 Energy=-6306.266355675809
C		-54.9954		59.547		-49.4796		1.8691015184555797		1.6654997188606284		0.7416115556800202
C		-54.5583		59.3103		-50.7743		1.1566203040401477		0.1789454862954231		-0.8564867976753943
C		-53.2248		59.5272		-51.283		-0.9815925618382584		-0.2803112783115231		3.3771844716383033
C		-52.2671		59.8852		-50.2945		1.339164666219885		0.6189374894281016		-1.8631656126772804
C		-52.6895		60.313		-49.054		-0.3985340451499821		-0.8065982953990205		1.5484945750387968
C		-53.9952		60.1566		-48.6347		-2.2400743151544096		-1.0901927695535103		-1.6413213222094614
H		-56.0469		59.4631		-49.1622		0.12207751890549808		-0.2291342934164736		-0.05324893405713226
H		-55.2723		58.9493		-51.4676		-1.119678642957841		-0.610437731038374		-1.2015279625040065
H		-53.0128		59.248		-52.2872		0.4783090501191926		-0.19135398991775684		-1.2185980817751985
H		-51.1517		59.9935		-50.4751		-0.9857803231816888		-0.3010730388676798		-0.3139997226132685
H		-52.0549		60.4983		-48.1909		1.0115019987709457		0.6285003989588728		-0.1583392774781615
H		-54.31		60.4954		-47.6831		-0.25111521965113076		0.41721825153924963		1.6393971086327819
12
Lattice="50.0 0.0 0.0 0.0 50.0 0.0 0.0 0.0 50.0" Properties=species:S:1:pos:R:3:forces:R:3 Energy=-6306.556972407739
C		-43.9909		50.0305		-40.1142		1.1326622509265558		-0.025075300264327055		0.43095997497458605
C		-42.6871		49.5582		-40.2855		-0.6294043988166499		-0.5435459067499238		-0.821146265351427
C		-42.4692		48.3632		-40.976		1.7147752701526617		0.5251769690255045		0.3438034872076319
C		-43.516		47.5395		-41.3335		0.039439899142055715		0.03873279436137918		-0.34898328297974496
C		-44.8087		47.9573		-41.129		0.6710188855574278		2.2291254781966305		1.2835236292398897
C		-45.0269		49.218		-40.5168		-1.9751265092836032		-0.6032986518429942		-0.10322958466940677
H		-44.0561		51.0046		-39.6367		-0.6888517997029241		0.36422282824996954		0.2865389014500711
H		-41.8556		50.1074		-39.906		1.0006497838684993		0.8055619865745733		0.24415622051843236
H		-41.414		48.1437		-41.2487		-0.3256922254381227		-0.3895711282438153		0.2525728808552495
H		-43.3277		46.5884		-41.7741		0.29134424176346224		-1.152313449200095		-0.7083146389617284
H		-45.6452		47.3943		-41.393		-1.7180493128685133		-1.4152122401486698		-0.5809090744780895
H		-46.09		49.4789		-40.2865		0.4872339146991504		0.16619667146383058		-0.2789722478054642
12
Lattice="50.0 0.0 0.0 0.0 50.0 0.0 0.0 0.0 50.0" Properties=species:S:1:pos:R:3:forces:R:3 Energy=-6306.464233003286
C		-15.0804		14.909		-13.0654		1.3766322207348134		0.0038785604819509853		-0.432037884247551
C		-14.9803		16.1719		-12.4994		2.1635152973925513		0.4109799326117131		0.5607651500022054
C		-13.6407		16.6171		-12.2693		-0.8977122250917159		0.07998773804154409		0.33731330301824136
C		-12.5359		15.8362		-12.5706		0.41250135717326325		0.11851186167352283		-0.9013129521702783
C		-12.5985		14.5865		-13.2215		-1.6501910623384786		0.34860095994546897		0.9786603215714764
C		-13.9371		14.1488		-13.4299		0.404709269206899		-0.2287465196435784		0.11162634466805786
H		-16.0051		14.4695		-13.3343		-1.5837502609597305		-0.5352313192070592		-0.1257424721400539
H		-15.7829		16.8038		-12.1378		-0.7361194737226806		0.1053379406517003		-0.12935692890928913
H		-13.3449		17.5679		-11.7912		-0.7246195465216816		0.13588891923544708		-0.032660620117601416
H		-11.6263		16.3935		-12.3979		1.1104295108521072		-0.2709726203950732		0.18248337561367822
H		-11.6946		13.9762		-13.3614		-0.1363331544329065		-0.05302776776655778		-0.3473335603723954
H		-14.1682		13.1525		-13.8326		0.26093796486343473		-0.11520773705114115		-0.20240402549442763
12
Lattice="50.0 0.0 0.0 0.0 50.0 0.0 0.0 0.0 50.0" Properties=species:S:1:pos:R:3:forces:R:3 Energy=-6306.445550012466
C		-122.085		135.66		-114.743		-0.9299510814531461		-0.3312957390047799		0.49600939818770645
C		-120.804		135.992		-114.384		-0.04598741893107193		-0.2837000436486887		0.9219096993280501
C		-120.514		136.068		-113.04		-0.8953152370729205		0.18244357493734603		2.4345717871714716
C		-121.552		135.997		-112.037		2.4918224375501095		-0.41395896695531964		0.2633505337671509
C		-122.862		135.735		-112.415		0.2993209349340029		-0.008380562048981039		0.7080956838198391
C		-123.082		135.489		-113.748		-1.129458964968628		0.5411150830140399		-2.5688020363607036
H		-122.202		135.489		-115.805		-0.8691248493844809		-0.11356372229272291		-0.5863186754472677
H		-120.068		136.08		-115.137		1.323881926417207		0.1868204152043858		-1.0580271382090012
H		-119.512		136.128		-112.621		0.6041640851539379		0.30547399608200615		-0.2254202321122831
H		-121.15		135.978		-110.971		-0.8693624707350378		0.2915829943993928		-0.8818014162183387
H		-123.687		135.674		-111.703		-0.1615576301003855		-0.03762223207876184		0.2862971149124563
H		-124.119		135.35		-114.119		0.18156832001247547		-0.31891474618585397		0.21013522973885745
12
Lattice="50.0 0.0 0.0 0.0 50.0 0.0 0.0 0.0 50.0" Properties=species:S:1:pos:R:3:forces:R:3 Energy=-6306.502900638928
C		-123.629		137.269		-113.42		2.1500584007610954		-0.14824137280971617		1.2798822273099335
C		-122.242		137.236		-113.811		-1.4222649302791421		-0.230439025406882		-1.3551748225179054
C		-121.984		137.299		-115.193		0.853724867279429		1.1499575988312554		-1.6687376118665815
C		-123.008		137.63		-116.162		0.41865302992558046		0.24575482959571193		1.3936060779051092
C		-124.319		137.841		-115.722		0.10787402534940856		-1.2329472026121315		1.3264412538871402
C		-124.607		137.564		-114.34		-1.3437748598062988		0.20789379345895712		-1.1018479399610297
H		-123.799		137.059		-112.329		-0.4015159077070231		0.2681994285674327		-0.7229838621373793
H		-121.438		137.139		-113.086		0.26893954631219863		-0.2340314735333909		0.315274064164772
H		-120.937		137.302		-115.685		-1.122483253665635		-0.25432647602873737		1.1806363612401771
H		-122.705		137.867		-117.186		0.0078030922877274965		-0.26068445409558255		-0.31109926118107734
H		-125.183		137.996		-116.375		0.05416625222908256		0.3636340970570406		-0.35066175052000115
H		-125.681		137.551		-114.039		0.42881984015770175		0.1252303083981051		0.014665315098905037
12
Lattice="50.0 0.0 0.0 0.0 50.0 0.0 0.0 0.0 50.0" Properties=species:S:1:pos:R:3:forces:R:3 Energy=-6306.4104843165105
C		-120.347		133.942		-111.024		0.09913433161631398		2.0542260340405405		-1.6797357111601832
C		-119.316		134.195		-112.019		-1.126171449672416		-0.33972798022651773		-0.5581374311892207
C		-119.653		134.742		-113.331		1.6121526715083518		-0.3969996108066335		1.203635135778864
C		-120.951		135.105		-113.604		-2.808911443408866		-1.0327830193136684		0.7871940772914029
C		-121.994		134.843		-112.624		1.1132212660442902		-0.022558704528285355		0.5137425021099975
C		-121.681		134.384		-111.305		0.8465689730696301		-0.1903567104387051		-1.654579781101943
H		-120.147		133.652		-109.997		0.5139201653357437		-0.48746094310484356		0.3320418217087895
H		-118.265		133.869		-111.868		-0.31934638297801443		0.1335095175620077		0.2183586459650076
H		-118.887		134.888		-114.159		-0.44252325415651694		-0.23825574454115733		1.0545362486558205
H		-121.285		135.37		-114.62		0.1984122850530359		0.28920055882426915		0.013743728895771823
H		-123.075		134.916		-112.83		0.14802308615463855		0.5072918614866271		-0.3781873634818787
H		-122.509		134.335		-110.581		0.16551975143380906		-0.27608525895363356		0.14738812652757188
12
Lattice="50.0 0.0 0.0 0.0 50.0 0.0 0.0 0.0 50.0" Properties=species:S:1:pos:R:3:forces:R:3 Energy=-6306.674814155912
C		-172.751		190.829		-159.474		-0.7463726730197088		-0.917440762147172		-0.14081201607183647
C		-172.315		192.017		-160.013		1.5674603686420112		1.599748795871638		-0.363488778308572
C		-170.91		192.337		-160.072		-1.0044395384486084		-0.40146561692995225		0.5574756292455579
C		-170.009		191.38		-159.612		-0.46185563564289944		-1.5666343760529626		0.7090851471453993
C		-170.472		190.133		-159.077		-0.8707177506128291		0.8426470637890382		-0.3599173618056029
C		-171.856		189.838		-159.017		0.9692309551368741		1.482453940149993		-0.352435708830217
H		-173.847		190.68		-159.457		0.15391651730935868		-0.25382747633477437		0.16067389053521156
H		-173.041		192.776		-160.352		0.01895751465116087		-0.08042621396800971		0.03570161804645376
H		-170.553		193.351		-160.289		-0.08783222508953954		0.08000439878977615		-0.48145140093312333
H		-168.925		191.469		-159.562		0.39795482703860546		0.6636028985557837		-0.2075561561969455
H		-169.731		189.476		-158.632		0.28297041600466144		-0.544809449668314		0.0469392413069226
H		-172.239		188.935		-158.583		-0.2192727245470239		-0.903853253477107		0.395785895866752
12
Lattice="50.0 0.0 0.0 0.0 50.0 0.0 0.0 0.0 50.0" Properties=species:S:1:pos:R:3:forces:R:3 Energy=-6306.291720249592
C		-162.002		179.174		-150.361		1.9840185665877212		0.8692802982792511		-1.3396034506787255
C		-160.851		179.769		-150.9		0.8020467743858563		1.0197608962201825		-0.6421649378784797
C		-160.834		181.171		-151.239		3.586973270942471		-3.2085195925991923		-0.8806927051299694
C		-161.895		181.954		-151.04		-1.3404098000399203		2.7591507249576672		0.18188019482120235
C		-163.079		181.398		-150.643		-0.7521100382149095		-1.6777996190870792		0.5915177544927975
C		-163.08		179.997		-150.373		-1.6854498850052213		2.132866565468097		0.6018653132744118
H		-162.083		178.137		-150.097		0.057660072839822586		-0.8924732939477912		0.25637662223634355
H		-159.948		179.202		-151.167		0.0815044831954118		-0.19641438366087352		0.25551350291820984
H		-159.925		181.557		-151.778		-0.4266546627964068		-0.15731407581920231		0.6527737721593753
H		-161.823		183.044		-151.161		-0.011796066858617853		0.11071494003328872		-0.309550531504369
H		-163.963		182.033		-150.528		-0.31456233139847545		-0.17551692028192534		0.08961945029186617
H		-163.97		179.553		-150.033		-1.9812204350597948		-0.583735590984485		0.5424649635752746
12
Lattice="50.0 0.0 0.0 0.0 50.0 0.0 0.0 0.0 50.0" Properties=species:S:1:pos:R:3:forces:R:3 Energy=-6306.347002256171
C		-21.1242		23.0175		-18.692		-1.7882141514315664		-0.40455412884450337		0.24309476630544966
C		-22.3978		23.2467		-19.2567		-0.07594874072476576		-0.1866858436669681		0.5408595153636898
C		-22.6403		23.9949		-20.4324		-0.28102583929125413		-1.2785796036240853		1.18280338979572
C		-21.5655		24.6016		-21.0395		1.2503269855433652		0.17594845422996097		0.8318458081504747
C		-20.2867		24.4038		-20.4615		-1.0635309958186407		0.4118382182559769		-1.3149444634319505
C		-20.0939		23.5327		-19.3817		1.1837052813489368		2.2827280931992573		-2.093429854493913
H		-20.8987		22.5399		-17.73		-0.5412015749230716		-0.37260472727257415		0.03017338637921561
H		-23.2175		22.8586		-18.6791		-1.0242677828831448		-0.3729539859206983		0.21876858264681642
H		-23.6621		24.0349		-20.8117		-0.30541208391882274		0.2605459230593567		-0.12758986115544083
H		-21.6955		25.323		-21.8286		-0.07166759691593552		0.38331167484861406		-0.818869862069064
H		-19.501		25.0195		-20.9165		0.5577129420637401		-0.32883154235036927		0.14328068644567973
H		-19.0855		23.4944		-19.1186		2.1595235569511595		-0.570162531913967		1.1640079060633222
12
Lattice="50.0 0.0 0.0 0.0 50.0 0.0 0.0 0.0 50.0" Properties=species:S:1:pos:R:3:forces:R:3 Energy=-6306.648264258777
C		-123.426		137.65		-113.265		0.21843423639680126		-0.644207679309094		-0.949568906808159
C		-122.095		137.355		-113.681		-0.08240364937931914		0.48831624626948555		-0.1992762785462311
C		-121.756		137.089		-115.03		-2.240754886150865		0.14779862885206763		0.5706165887253535
C		-122.83		136.93		-115.965		1.4918911227380873		0.21711541476128304		1.83838346959095
C		-124.137		137.077		-115.504		-1.003397418931105		0.4427970766390348		-0.6864322373987153
C		-124.488		137.531		-114.209		1.9639229788505352		-0.24227962377157694		0.08075690925159133
H		-123.6		137.912		-112.215		-0.1493251441977998		0.1730450617402105		0.09781797823979312
H		-121.255		137.449		-112.972		-0.16942736538104128		0.0011750969709853885		0.16203528963843397
H		-120.713		137.064		-115.28		0.8856320513380912		-0.2650832001612237		-0.5198948433491264
H		-122.584		136.734		-116.997		-0.11272338294825227		-0.27605641117660207		-0.7706721172058709
H		-124.912		136.921		-116.277		-0.20923719484032388		0.1357537820553425		0.2472186100252617
H		-125.492		137.859		-113.963		-0.5926113474948083		-0.17837444429197513		0.12901553783671904
12
Lattice="50.0 0.0 0.0 0.0 50.0 0.0 0.0 0.0 50.0" Properties=species:S:1:pos:R:3:forces:R:3 Energy=-6306.314047319541
C		-78.6088		89.0991		-72.8869		0.7221234167664928		0.443864033012699		-0.06742018598006899
C		-78.0239		88.4399		-73.9795		-0.6812426714347378		-0.42818565186157176		0.30524727620868763
C		-78.7815		87.809		-74.959		-1.54572020050372		-0.12030736582790308		-1.7756303499983586
C		-80.2092		88.0045		-74.9425		1.3848266349177447		-0.926844880349114		0.617108869465507
C		-80.7917		88.6943		-73.8948		-0.5923706922425672		-0.8171900575551844		1.231456939820423
C		-79.9877		89.1638		-72.8376		-0.28515703636599576		1.3208075041477658		-0.31910773318620883
H		-77.978		89.6345		-72.1117		-0.5050785016528214		-0.6787157912862071		-0.6434299206146185
H		-76.9842		88.3109		-73.9502		2.156518297355706		-0.17431534094878093		-0.24516794959703112
H		-78.3892		87.1968		-75.8498		0.00658012137660613		0.7630439627745801		1.331757575235044
H		-80.8874		87.3769		-75.5116		-0.07861497466252142		-0.07155030319149926		-0.9627870508036839
H		-81.8843		88.5423		-73.7366		0.246289567623074		0.69789925447975		-0.19229737907536662
H		-80.3631		89.8236		-72.0671		-0.8281538583331354		-0.00850536339453423		0.7202699599477376
12
Lattice="50.0 0.0 0.0 0.0 50.0 0.0 0.0 0.0 50.0" Properties=species:S:1:pos:R:3:forces:R:3 Energy=-6306.571362961032
C		-27.8103		32.8221		-26.9184		-1.5798214097007086		0.05286491409479554		1.0668277670860926
C		-28.7454		32.7742		-25.81		-0.09035756257619681		-0.34687245873845407		-3.4208180970830337
C		-30.1035		32.5046		-26.1506		0.5906684162873992		-0.09749160240945684		-0.23891137583732674
C		-30.5888		32.2658		-27.449		2.2297986958381557		0.6374391989177529		-1.0254241622234002
C		-29.6304		32.3556		-28.5279		-1.8608964599057223		-0.46140553833032133		2.457195592030812
C		-28.3065		32.6167		-28.2139		0.40622863688595134		0.052717744152078916		-0.9120803720917533
H		-26.7544		33.0675		-26.8073		0.3452449504620806		0.005533476717607503		0.300419207343696
H		-28.4494		32.9549		-24.8008		0.34101965101306525		0.15495303182205572		1.1094856588959354
H		-30.8321		32.4485		-25.3767		-0.8318617489898326		0.018532974103617754		1.249094193018317
H		-31.6372		32.0905		-27.6895		-0.36895350372869096		-0.1430757181047753		0.2269374400647128
H		-29.9959		32.1439		-29.519		0.06372268257998566		0.039438613590494595		-0.9253877847876821
H		-27.6861		32.6697		-29.114		0.7552075489903886		0.08736536418460444		0.11266198500569334
12
Lattice="50.0 0.0 0.0 0.0 50.0 0.0 0.0 0.0 50.0" Properties=species:S:1:pos:R:3:forces:R:3 Energy=-6306.345566930683
C		-109.363		123.726		-103.065		1.0216718943268135		1.087282332241205		-0.10585560655433071
C		-110.154		124.37		-102.07		1.923758542848634		-0.8937584855544708		-1.0243626051662926
C		-111.455		123.881		-102.016		-0.1677478693995362		1.0396424139114115		0.9694487789933895
C		-112.049		123.061		-102.958		0.3763548868646007		-1.1676907027535464		-1.6052624750952045
C		-111.226		122.533		-104.028		-1.4601812965550873		1.7918250600784926		1.263900044613883
C		-109.896		122.899		-104.075		0.5294142498150695		-0.3555315740996978		0.8689105736502741
H		-108.278		123.953		-103.108		-0.16434177482732676		0.05125807748752477		-0.04768542685505707
H		-109.67		125.159		-101.387		-0.8864153636153109		-1.1914564887756578		-0.6304889415356703
H		-111.967		124.231		-101.143		-1.2930016923676273		0.3164635078911795		0.6810161572496691
H		-113.141		122.853		-102.915		0.4352239438145598		-0.09270811647260473		0.07288146612200419
H		-111.622		122.101		-104.928		-0.7416246683059435		-0.9221000123811578		-0.44086874929736
H		-109.297		122.417		-104.86		0.42688909597909197		0.33677409127144675		-0.001633113281179982
12
Lattice="50.0 0.0 0.0 0.0 50.0 0.0 0.0 0.0 50.0" Properties=species:S:1:pos:R:3:forces:R:3 Energy=-6306.464911211157
C		-55.6836		60.2368		-50.4973		0.7612542178911937		-0.30746516118398826		-0.8425637600478777
C		-55.4156		61.5525		-50.8288		2.0643025985530716		-0.9286389446857458		0.7922814676173029
C		-54.0486		61.8983		-50.8698		-1.161474495312861		0.11038959264420131		-0.26814461264886663
C		-53.0374		61.0016		-50.6121		1.044743276817672		0.5047540798608581		-0.27884708650547385
C		-53.3381		59.6833		-50.3875		0.5473451229895226		-0.4233834997160522		-0.2053155940921067
C		-54.6388		59.2914		-50.4374		-2.0766364887627975		-0.5759336299821314		1.2925420819734967
H		-56.6897		59.942		-50.3591		-1.5633467064905633		-0.6978260808848911		0.14671814847598041
H		-56.1639		62.2959		-50.9138		-1.1509221224565298		1.0285315460348685		-0.2671376144000128
H		-53.8497		62.8974		-51.1385		0.7105931505486515		1.7823749705527252		-0.3188944858932508
H		-51.9768		61.2556		-50.6403		0.252283014689249		0.5499499589847194		0.018741953365392854
H		-52.5618		58.9683		-50.1854		0.7138665761997538		-0.6450887449270207		0.08415107390531361
H		-54.8913		58.2636		-50.1669		-0.1420081960884241		-0.39766403527548083		-0.1535316231719604
12
Lattice="50.0 0.0 0.0 0.0 50.0 0.0 0.0 0.0 50.0" Properties=species:S:1:pos:R:3:forces:R:3 Energy=-6306.457792534596
C		-79.9738		88.4691		-75.3047		-0.16826831209353862		-2.2642106485584974		-0.35187310004501
C		-79.0856		89.5213		-75.3035		1.413568071124064		0.5887714049817532		0.05550970503251177
C		-79.5318		90.7478		-74.8442		-1.1220515140293497		-0.1606157836046491		0.020924614227918928
C		-80.8798		90.8909		-74.4463		0.8441852005208829		0.5423232443711771		0.21810883758565144
C		-81.7934		89.8436		-74.4759		0.6080086042305506		-1.9247805049176594		1.190426144910454
C		-81.2821		88.5391		-74.8155		-0.24343595168976997		2.106549885194293		-1.2836474021441941
H		-79.6378		87.4828		-75.6986		-0.001888989463904614		0.27032279979195994		0.17139209954292686
H		-78.0082		89.4077		-75.5744		-0.5501827980834688		-0.14201837765678818		-0.09585751210909042
H		-78.8895		91.6083		-74.7582		0.6136803548740718		0.5883767406524905		-0.0007471111452584766
H		-81.0565		91.8646		-73.9967		-0.8266433352488236		0.4329721202780456		0.10710140886117751
H		-82.7425		89.8576		-73.9096		-0.20482050247488948		0.46688193655861526		-0.5329808840662311
H		-81.9464		87.7066		-75.0308		-0.3621507248216995		-0.5045728170907406		0.5016431479270811
12
Lattice="50.0 0.0 0.0 0.0 50.0 0.0 0.0 0.0 50.0" Properties=species:S:1:pos:R:3:forces:R:3 Energy=-6306.553190152878
C		-113.673		128.198		-106.514		0.46828246785135796		-0.3213411990464302		-0.5408059849966849
C		-113.855		127.846		-107.845		0.6889791721515994		0.37538444970214513		0.4185899864770234
C		-115.135		127.886		-108.329		-1.4932351411842033		-0.6686767134571985		-0.296142948630798
C		-116.262		128.126		-107.524		1.2306727533681414		0.5035600081488306		1.8919095171425968
C		-116.052		128.492		-106.145		-1.2031687890945533		-1.0132260262585275		-0.782680300072073
C		-114.732		128.486		-105.675		-0.3906918720947966		0.7238123744074878		0.04643772193189982
H		-112.658		128.21		-106.17		0.9313245133189807		0.06892186446964042		0.7340353375317985
H		-112.995		127.549		-108.459		-0.010581117789237853		0.06250002020123896		-0.17349932423984663
H		-115.295		127.535		-109.327		-0.31049124671473166		-0.18235605458706525		-1.2325998465803176
H		-117.258		127.925		-107.882		-0.7525087134650431		0.16408996098753525		-0.43502977410676885
H		-116.961		128.581		-105.461		1.0701495808979553		0.18984382678788203		-0.6200133932406312
H		-114.447		128.8		-104.684		-0.22873160724546943		0.09748743722239882		0.9897990602058642
12
Lattice="50.0 0.0 0.0 0.0 50.0 0.0 0.0 0.0 50.0" Properties=species:S:1:pos:R:3:forces:R:3 Energy=-6306.405728221308
C		-122.937		137.998		-114.038		2.321025702646167		0.7293081073312607		0.08649915954272415
C		-121.581		137.585		-114.079		0.5902426930324198		1.809165607976081		0.30347336932053415
C		-121.214		136.254		-114.01		1.7773782887449776		0.1459542223163025		-0.5333318910644783
C		-122.175		135.308		-114.134		-1.7024479105448658		-1.782454983281889		-0.08664571242069144
C		-123.529		135.712		-114.204		1.226008206661724		-1.2261939945733364		0.48424336181355626
C		-123.909		137.013		-114.067		-0.8148363669129675		1.7065913460704694		0.40465841278714115
H		-123.0		139.096		-113.894		-0.9139886962511371		-0.3147940392118511		-0.2042366049558304
H		-120.772		138.369		-114.094		-0.581307646884098		-0.4475703810075229		0.12585842889086662
H		-120.174		135.876		-113.957		0.00012243593068073734		0.5774418390736332		0.04662829209531973
H		-121.854		134.24		-114.118		-0.5103808361997402		0.31701007299290374		-0.08604088612221733
H		-124.312		135.007		-114.152		-1.1262491998308322		-1.4981299558862478		-0.19970292739833442
H		-124.953		137.273		-113.854		-0.26556661897026596		-0.016327790377740917		-0.34140305391065257
12
Lattice="50.0 0.0 0.0 0.0 50.0 0.0 0.0 0.0 50.0" Properties=species:S:1:pos:R:3:forces:R:3 Energy=-6306.561424806105
C		-104.324		118.236		-97.7101		-1.369813603832589		-2.2404440397833874		0.36707114771084165
C		-105.656		118.018		-97.3035		0.2789779042323331		-0.5457997357468732		-0.22932882307870173
C		-106.224		116.713		-97.2969		2.0327174194494377		0.7438702183508394		-0.07898948154330589
C		-105.4		115.593		-97.5361		0.16465951175117233		-0.4450356332834382		0.2218772005877835
C		-104.04		115.812		-97.8309		1.0661297125884064		-0.3641859072091343		-0.6009132852103114
C		-103.522		117.12		-97.9742		0.18553522359770638		0.4590635204962792		-0.45953279823814913
H		-104.018		119.224		-97.9052		0.8498543800612818		1.6847473567881022		-0.053748499393782144
H		-106.181		118.919		-96.9931		-0.81515909177687		0.14376441378709665		-0.05912935543005388
H		-107.256		116.593		-97.1219		-1.7449978674456375		-0.23527496184742763		0.5179586998539601
H		-105.775		114.526		-97.4419		0.1531811303943376		1.0468211909389984		-0.21155339879901872
H		-103.331		114.962		-98.0623		-0.7239738911056264		0.4903732830334594		0.2961264421487533
H		-102.523		117.382		-98.3898		-0.0771108793360151		-0.7378998083686398		0.2901620999699219
12
Lattice="50.0 0.0 0.0 0.0 50.0 0.0 0.0 0.0 50.0" Properties=species:S:1:pos:R:3:forces:R:3 Energy=-6306.527970766357
C		-8.16678		7.07081		-6.59119		0.04804620404516881		-1.096052982055891		-1.1858899476718983
C		-7.01186		6.63684		-7.30242		-0.24918236716796083		0.4353997558460581		1.1491166424220354