12
Lattice="50.0 0.0 0.0 0.0 50.0 0.0 0.0 0.0 50.0" Properties=species:S:1:pos:R:3:forces:R:3 Energy=-6306.5988810861345
C		-118.204		131.353		-111.36		1.745723278480544		1.3210610149156181		0.5835439923798162
C		-117.397		132.422		-110.857		0.4350585704617378		-0.3312429285466492		-1.2638189520214078
C		-117.917		133.471		-110.093		0.2689180518900968		-1.0462261862544513		0.952718456710832
C		-119.23		133.327		-109.625		0.468057547750225		-0.09668761846313458		-1.4871777250723468
C		-120.011		132.303		-110.157		-1.780104172275169		0.22229130245665035		2.018327418072861
C		-119.515		131.288		-110.952		-0.7809661456204803		-0.7341085625487196		-1.002940636750409
H		-117.732		130.65		-112.045		-0.006965632578753752		-0.46745817219037006		-0.12498265974537164
H		-116.327		132.454		-111.159		-0.29394465546128873		0.012099097072604236		0.0651043933978737
H		-117.231		134.206		-109.665		0.07217564689288879		0.43379893562009336		-0.08310072685781897
H		-119.694		134.026		-108.964		-0.3573329403691967		0.8626852130824737		0.7652135624332452
H		-121.043		132.287		-109.715		0.35015971692435394		-0.34665576616731225		-0.6543308322101997
H		-120.146		130.468		-111.343		-0.12077916325083281		0.1704435681790727		0.23144376108498818
12
Lattice="50.0 0.0 0.0 0.0 50.0 0.0 0.0 0.0 50.0" Properties=species:S:1:pos:R:3:forces:R:3 Energy=-6306.445353261699
C		-102.701		114.199		-94.7615		0.050114553662880396		0.6722425763774235		-0.7001327203399712
C		-104.044		114.28		-95.1178		1.340241752739851		0.957369170882452		-0.5199697138720458
C		-104.368		114.979		-96.294		-2.255728939312688		-1.3620550944730012		0.7387452899193548
C		-103.331		115.505		-97.0609		-1.5511336067055193		0.23051929524635806		-1.3815925471444128
C		-102.003		115.47		-96.6802		0.11151321613067962		-0.23562288352192823		-0.058729651738671534
C		-101.691		114.817		-95.4998		-0.2844467948395101		-0.37206453850659293		0.3201900133344816
H		-102.395		113.651		-93.9127		0.2952730930224841		-0.8616464874210914		1.5443148355371075
H		-104.718		113.873		-94.4073		-1.4306019892632948		-0.6698271278382104		0.5250471797398942
H		-105.507		114.887		-96.5613		1.979590818478861		0.7307223683146764		-0.13952193936922477
H		-103.634		115.849		-98.0593		0.24789681560684432		0.4308864414252902		-0.12311351919757064
H		-101.246		115.829		-97.3664		0.5006662830068197		0.3922686267955373		-0.21985795903970656
H		-100.693		114.7		-95.1153		0.9966147974725919		0.08720760129702423		0.014620783592827957
12
Lattice="50.0 0.0 0.0 0.0 50.0 0.0 0.0 0.0 50.0" Properties=species:S:1:pos:R:3:forces:R:3 Energy=-6306.560589017084
C		-135.688		150.605		-125.449		0.4569412805571257		-0.7693866170668169		0.50173462777617
C		-135.636		149.578		-124.49		-0.7679558496013567		0.3999726801909964		-0.3993146834799545
C		-134.455		148.895		-124.313		0.0034252750015013		-0.8512419529942887		0.9656055454683381
C		-133.284		149.286		-124.967		0.6409104452430798		0.017291234139704084		0.7466754975454455
C		-133.334		150.357		-125.854		-0.7111806476120817		0.3659512780349219		0.1307822970581927
C		-134.567		150.996		-126.151		1.3004733180408363		-0.9015662058278182		0.42139012346538496
H		-136.565		151.141		-125.65		-1.9821171844067675		0.907210959888556		-0.18521604685611237
H		-136.486		149.294		-123.844		-0.13391750020544366		0.19179549974590673		-0.34117098614283986
H		-134.533		148.105		-123.543		0.6813670099817289		-0.08760725356634415		-0.16303215774098614
H		-132.302		148.906		-124.601		-0.35451316015298134		-0.11593921588941646		-0.460844060830488
H		-132.403		150.795		-126.163		0.7997768502833617		0.24818925287596713		-0.7528875397990727
H		-134.63		151.8		-126.868		0.06679021429305945		0.5953303404686321		-0.4637226678861401
12
Lattice="50.0 0.0 0.0 0.0 50.0 0.0 0.0 0.0 50.0" Properties=species:S:1:pos:R:3:forces:R:3 Energy=-6306.515765271654
C		-166.965		185.756		-154.855		-1.8436878095983045		3.261926032433592		-1.1160277793683948
C		-165.7		186.349		-155.007		-1.2625854910095478		0.10194017645360688		0.07488240141585084
C		-164.661		185.575		-154.621		1.4763219106255296		-2.2671259195446725		0.7248077512702289
C		-164.918		184.25		-154.115		0.7434797192086348		1.3934769056842482		-0.3330820386099825
C		-166.212		183.752		-153.968		1.2961610124621648		-2.0119219774423795		0.8603810933084532
C		-167.285		184.532		-154.333		0.0023718940523224236		-0.24643308659935706		-0.3493921397982424
H		-167.785		186.444		-155.173		-0.05491526599065149		-0.4618713707940074		0.11089198619428567
H		-165.559		187.379		-155.363		-0.19227511332232805		-0.03365975079090117		-0.1547772712126199
H		-163.628		185.917		-154.744		0.2801200910833539		0.0031326320441287356		0.1502446220963728
H		-164.034		183.683		-153.829		0.16978130343684789		-0.49736467806549794		0.15569788039656662
H		-166.314		182.701		-153.567		-0.13246873501812778		0.7983666002208167		-0.267066291999402
H		-168.306		184.164		-154.31		-0.4823035159298938		-0.04046556359957692		0.14343983772894595
12
Lattice="50.0 0.0 0.0 0.0 50.0 0.0 0.0 0.0 50.0" Properties=species:S:1:pos:R:3:forces:R:3 Energy=-6306.593086688374
C		-83.5412		91.7751		-78.3376		-0.24668855140558213		-0.35408039207544706		0.026076539242187047
C		-82.2498		92.3176		-78.3202		-0.13841492520891613		-0.3785027864129142		-0.8000724757203558
C		-82.0389		93.4574		-77.5175		0.2454541133745356		-0.06499275610030633		-0.4634639120679186
C		-83.0891		94.0423		-76.7993		-0.3727482462488571		-0.9233671034218567		0.2530777426643312
C		-84.377		93.438		-76.7976		1.1364666607944616		2.1037049081674803		0.4644079182902777
C		-84.5622		92.3005		-77.5161		-0.42192840961505557		-1.127454738662785		-1.2484585649044384
H		-83.8131		90.9871		-79.06		0.1747636384891735		-0.21616400376193187		0.22893672985256117
H		-81.4789		91.8596		-79.0279		-0.5877345819366815		0.7305832716357636		0.9257160118122664
H		-81.0597		93.9321		-77.5944		0.36036133989275015		0.24200801243774422		0.3720038604729083
H		-82.9277		94.8738		-76.1225		0.2371450794144151		0.732491801483397		0.013341094146830131
H		-85.217		94.0246		-76.3926		-0.032905903355462444		-0.38439416068513654		0.4680672150979647
H		-85.5644		91.8739		-77.5249		-0.3537702656168433		-0.35983205260400725		-0.23963210746455108
12
Lattice="50.0 0.0 0.0 0.0 50.0 0.0 0.0 0.0 50.0" Properties=species:S:1:pos:R:3:forces:R:3 Energy=-6306.555614498961
C		-7.1626		6.86755		-4.81373		-0.0057247153678391975		-0.3597309054071786		0.7882673071566854
C		-5.82509		6.54		-4.51217		0.09737322882170923		0.44914240487851853		-1.0686892457465895
C		-4.86734		6.73188		-5.54359		-1.1601884809531826		-0.9079208928826671		0.9454986962994766
C		-5.32719		7.0676		-6.79927		1.0245143002505044		1.193685429494384		-1.1400887794510008
C		-6.63793		7.3399		-7.09928		-2.08583867252552		-0.16092498446612885		0.28476350332210676
C		-7.61189		7.22086		-6.07327		1.4344845606661167		-0.09129791783212235		-0.78410469120179
H		-7.94953		6.82601		-4.06415		-0.10484238623592111		-0.33756496259184554		0.6829447417016561
H		-5.60006		6.08225		-3.55282		0.34825267831653123		0.11755988503148485		0.5162892825966942
H		-3.82126		6.48836		-5.49965		0.8957804524718573		-0.18416179173187194		0.6629631052548474
H		-4.60153		7.28365		-7.59179		0.30132855509596734		-0.29779765917820467		-0.1891103424891714
H		-6.94024		7.58306		-8.12185		-0.023036621176646035		0.11699573358440447		-0.2405877864950851
H		-8.6805		7.27175		-6.20466		-0.7221028993635774		0.4620157125232896		-0.45814579094782937
12
Lattice="50.0 0.0 0.0 0.0 50.0 0.0 0.0 0.0 50.0" Properties=species:S:1:pos:R:3:forces:R:3 Energy=-6306.41562043542
C		-54.9285		59.555		-49.4516		-0.8755386203890787		-0.42493135521769887		-1.8655092760173202
C		-54.5422		59.2258		-50.7855		-0.21537945735521374		0.012126196499512574		1.0054794982394892
C		-53.2162		59.3877		-51.1641		0.469479727731257		0.5222834495717434		0.2473823378720855
C		-52.2226		59.9174		-50.3108		-0.8353972214711527		-1.2047107310590188		1.1917950516347935
C		-52.6453		60.27		-48.9898		-0.9606827571643233		0.5343054135506806		-2.4919135574447613
C		-54.0454		60.212		-48.6472		3.045765679638094		0.1040295062727959		1.3988111219098824
H		-55.9513		59.3203		-49.147		-0.3081666095377959		0.1837861535657137		0.20156039513796045
H		-55.2854		58.8321		-51.4905		-0.026045120362033356		-0.14340728756341847		-0.042383452262575436
H		-52.9086		59.1523		-52.1594		0.1989043941906313		-0.4567213998181122		-1.2302289295471818
H		-51.1527		59.7939		-50.6122		-0.46899178378071965		0.6339277919616569		0.19924583668526386
H		-51.9253		60.8693		-48.4696		0.5437007900020071		0.2563770850349056		1.3210352010402708
H		-54.2444		60.566		-47.6272		-0.5676490215016721		-0.01706482279876024		0.0647258241741561
12
Lattice="50.0 0.0 0.0 0.0 50.0 0.0 0.0 0.0 50.0" Properties=species:S:1:pos:R:3:forces:R:3 Energy=-6306.649908652538
C		-13.2378		13.5041		-10.9127		-0.016090169027184142		-0.16874854273470932		-0.022235208333445992
C		-12.6437		12.5236		-10.0857		0.7326655566323977		0.9018409024853976		-0.5115807186048239
C		-11.2657		12.3129		-10.2439		0.303355509953411		-0.21372875772867767		0.03483957859163147
C		-10.5461		13.0499		-11.1797		-0.7245015328883709		0.6490051006248686		-1.392143274494746
C		-11.1414		13.9851		-12.0785		-0.9753789769227578		-0.8200032043253443		1.255545245018187
C		-12.527		14.2257		-11.9087		0.4742832168504001		-1.2021932611479156		0.8358925187766199
H		-14.3181		13.6751		-10.8542		-0.23340422721569087		0.06939839272231509		0.16550293641938962
H		-13.1548		11.9818		-9.2977		-0.6413019214044711		-0.2542524796808795		0.17153330452639992
H		-10.6904		11.5218		-9.72475		-0.38767792217079017		0.15113088134260655		0.26353246502408006
H		-9.53071		12.7814		-11.375		1.2850948817799488		-0.18993720925328156		0.011788559237500931
H		-10.5664		14.3875		-12.9087		0.24227962377157694		0.4098914303938845		-0.20938868423628584
H		-13.1399		14.8499		-12.5405		-0.059323936514344484		0.6675966958796733		-0.6032867219245072
12
Lattice="50.0 0.0 0.0 0.0 50.0 0.0 0.0 0.0 50.0" Properties=species:S:1:pos:R:3:forces:R:3 Energy=-6306.54863980613
C		-102.17		115.036		-95.2952		0.24181055171795673		0.9452532073733658		-1.078556111088471
C		-103.27		114.352		-94.7901		-0.7994161245153123		-0.035253526194310984		0.24542115183250857
C		-103.082		113.025		-94.433		0.23751886638632533		-1.4443280803916483		0.38484590350371295
C		-101.84		112.388		-94.5869		1.5556980860784195		-1.146754929938077		-0.2113374775588136
C		-100.683		113.085		-95.0922		-2.9480616526886783		1.026422264455451		1.0828158633193243
C		-100.892		114.447		-95.433		-0.33995022638040356		-0.7775143368347575		-0.4561823937595674
H		-102.345		116.029		-95.7657		0.20939485488377924		-0.1125225283723434		0.3978904466164247
H		-104.314		114.758		-94.7073		0.8264426349391021		0.14815606360812045		-0.11415841844489542
H		-103.888		112.397		-94.0168		-0.18476425261547358		0.22366766538004418		-0.1160457624028018
H		-101.73		111.257		-94.3655		-0.22421155653452132		1.5712717719104095		-0.07793049558932054
H		-99.7129		112.65		-95.0479		1.1648069534916499		-0.6904276288065406		-0.40408834780287967
H		-100.129		114.973		-96.0223		0.2607318652371565		0.2920300578102866		0.34732558995271634
12
Lattice="50.0 0.0 0.0 0.0 50.0 0.0 0.0 0.0 50.0" Properties=species:S:1:pos:R:3:forces:R:3 Energy=-6306.421379654062
C		-98.0441		108.64		-89.4305		3.1744884716733153		0.3344116588786141		0.2770272597155573
C		-98.3724		107.8		-90.4572		-1.1073163163475823		-1.5952821212615076		-2.0080006338044747
C		-97.4506		107.362		-91.4179		2.5304430289712347		1.0046827133819094		0.9140534880498172
C		-96.1042		107.835		-91.2901		-1.4915536911643252		-1.2831546759418493		-1.9230288123604822
C		-95.8056		108.726		-90.3021		1.137326643366786		0.06314963511610236		1.4876871634449864
C		-96.6667		109.052		-89.2653		-2.6413666397339237		-0.17968848367568602		-1.2212388617920442
H		-98.7699		108.872		-88.7178		-1.513669754579087		0.6788226463319671		1.5874208191990928
H		-99.3845		107.379		-90.601		-0.15009210425916195		0.3236596655758726		0.4018747308587619
H		-97.5656		106.64		-92.2048		-0.9478934217475247		-0.6124625775912572		-0.5662075068251609
H		-95.3323		107.481		-92.0203		-0.3537758706216498		0.29940768395334705		0.40392194600880876
H		-94.7795		109.006		-90.1892		1.1935751291704402		0.5832985034537054		0.007477642054515239
H		-96.3569		109.703		-88.4635		0.16983457669354055		0.3831553517787823		0.6390128168726845
12
Lattice="50.0 0.0 0.0 0.0 50.0 0.0 0.0 0.0 50.0" Properties=species:S:1:pos:R:3:forces:R:3 Energy=-6306.5619582852805
C		-37.0775		43.172		-35.9512		-0.24046169959797084		-0.4691710410904017		0.9278022563077086
C		-36.394		42.1925		-35.1466		0.6053077632447696		0.9845744758173617		-0.7190087310221573
C		-37.1493		41.225		-34.4727		1.1517269805779138		-0.7581699740078255		1.0898109607398587
C		-38.5666		41.1726		-34.4522		2.1555219948958406		-1.1493638282762069		0.008116509758327705
C		-39.2111		42.0969		-35.2309		0.6395070343148401		1.209705715938706		-0.3835284702638807
C		-38.4865		43.1122		-35.9325		-0.5360007989494812		-0.4689443212170832		-0.5187419607091172
H		-36.572		43.9943		-36.5157		-0.07409795785325754		-0.5699303613020295		0.29370729122104416
H		-35.2483		42.2095		-35.0548		-1.4183985568259905		-0.10554090353216938		-0.1728917211500005
H		-36.5455		40.474		-33.8771		-0.6474597133822192		0.4740830821833655		-0.40988711094063923
H		-38.9841		40.28		-33.9428		-0.4580369818636964		0.5651590623939767		-0.07321637801470628
H		-40.2735		42.0525		-35.2555		-1.4502719565896267		0.22837149854216954		-0.3297134307212952
H		-39.0904		43.7744		-36.5893		0.2726638920288781		0.059226543128074294		0.2875507847948572
12
Lattice="50.0 0.0 0.0 0.0 50.0 0.0 0.0 0.0 50.0" Properties=species:S:1:pos:R:3:forces:R:3 Energy=-6306.580420795999
C		-111.955		126.179		-105.863		0.1313368325795959		-0.05095823544140995		-1.336476526483528
C		-112.34		127.327		-105.153		0.5782898917274706		-1.2532506897477813		0.7800930504222323
C		-113.579		127.301		-104.545		-2.2836861376446635		1.1187035263877028		0.0508493749352146
C		-114.585		126.409		-104.979		0.5466597697412602		-1.1398206133953521		0.032618094071959675
C		-114.228		125.311		-105.82		-0.2821731683485194		0.6811268175280499		0.03087164656515166
C		-112.877		125.176		-106.228		-0.8763286175344158		0.9896964217692246		0.7094113172874859
H		-110.981		126.088		-106.368		0.28218170441088525		0.23444768370681793		0.32235297954709136
H		-111.668		128.127		-104.871		0.6786548561422102		0.36907290575768753		-0.11308925092254603
H		-113.916		128.122		-103.857		0.4008176989431495		-0.36052578764844817		-0.36889477973337914
H		-115.625		126.512		-104.612		0.22492514049506587		-0.019472917983043708		-0.06800999703630925
H		-115.044		124.659		-106.212		0.48680474616598723		0.03872857775225872		0.22678055135219413
H		-112.555		124.394		-106.903		0.11251723189991161		-0.6077476372636439		-0.2665064085835046
12
Lattice="50.0 0.0 0.0 0.0 50.0 0.0 0.0 0.0 50.0" Properties=species:S:1:pos:R:3:forces:R:3 Energy=-6306.382173148423
C		-163.308		181.568		-152.847		1.5633004266343633		0.5597236475494511		0.23575385551497477
C		-161.965		181.808		-152.586		-0.33974474381887476		-0.6700182122222548		2.049729637478317
C		-161.431		181.682		-151.278		-0.00806781306519261		0.649213771354269		-1.6359588238494822
C		-162.271		181.376		-150.242		0.40378315786227065		-0.1509201537307083		0.8696211751311967
C		-163.624		181.202		-150.482		-0.4885432232531164		-0.3636166649778719		1.7014606069459284
C		-164.097		181.32		-151.752		-0.7684196251825451		-0.22733009893354025		-1.1407044043825885
H		-163.679		181.701		-153.851		-0.48263210290891523		0.002258456982569502		-0.6164814174595573
H		-161.373		182.192		-153.333		1.955966031751973		0.8081767984498843		-2.3184500743824388
H		-160.402		181.947		-151.029		0.4208299829391753		-0.039337157861291286		-0.2959981955250162
H		-161.762		181.36		-149.282		-0.4086350351421741		-0.2573512760079196		0.8226789513446523
H		-164.357		180.982		-149.69		0.19591702947290876		0.060203048093898405		0.20367744144880717
H		-165.121		181.264		-151.989		-2.0437541367119354		-0.3710022101185487		0.12467129915726918
12
Lattice="50.0 0.0 0.0 0.0 50.0 0.0 0.0 0.0 50.0" Properties=species:S:1:pos:R:3:forces:R:3 Energy=-6306.606037619527
C		-142.684		160.593		-133.446		1.2745097530698404		0.8254081258868403		0.34351310682100683
C		-143.936		160.224		-132.937		0.5219214896741955		-0.5077273035114083		-0.400356802997458
C		-144.114		158.89		-132.555		-1.3559074326415543		-0.5300130083101751		0.31185228586351693
C		-143.068		157.984		-132.612		-0.020594587431149093		-0.8398984517072463		0.31954626053473684
C		-141.794		158.384		-132.98		-0.3098811239438258		-0.04188085302424131		-0.37805608295645743
C		-141.604		159.694		-133.383		1.6468950109799005		0.5283672452016337		-1.0681452517479875
H		-142.372		161.597		-133.821		-0.8207957211517415		-0.17266207021912267		0.20905351523327154
H		-144.774		160.895		-132.891		-0.6291891460632566		0.7260714484548066		-0.08604376575771425
H		-145.115		158.46		-132.269		0.5350226998997213		0.6757751692232468		-0.06997853643081577
H		-143.243		156.926		-132.381		-0.1110413672856874		-0.13590701980142758		0.10538735725370964
H		-141.028		157.642		-133.128		0.8009357493046768		-0.4966520711241398		0.2259101815232558
H		-140.546		159.966		-133.766		-1.531875375833182		-0.03088126249082881		0.48731768123887276
12
Lattice="50.0 0.0 0.0 0.0 50.0 0.0 0.0 0.0 50.0" Properties=species:S:1:pos:R:3:forces:R:3 Energy=-6306.533828038417
C		-60.8656		66.0239		-56.6274		1.211983918993254		1.5165230619800163		0.7435445624293775
C		-61.5302		67.0645		-55.9921		1.3053930210211042		1.2307846991980835		1.5780912629876955
C		-60.8059		68.1047		-55.2736		-0.18293259875119475		-1.6512792046018696		-1.5256468785195725
C		-59.3866		68.0921		-55.3511		-0.3013261896810949		0.2076020760987086		-0.27142585445346046
C		-58.7138		67.0074		-55.976		-1.0128913714761378		-0.6048193564956703		-0.1198801513331128
C		-59.4848		65.966		-56.6044		2.276717316898038		0.699317526384036		0.28820646751308904
H		-61.3368		65.3013		-57.201		-1.6383396139186075		-1.7764801510023192		-1.1906331187117936
H		-62.5973		67.0198		-55.969		-1.2565432958281753		0.2771992150923723		0.044196542762311726
H		-61.3699		68.8856		-54.7426		0.11327843269027994		0.10565891716547986		-0.07978369529776368
H		-58.8387		69.014		-55.0388		-0.02275400552145018		-0.6445129720938279		0.27528610868118114
H		-57.6137		66.9099		-55.949		-0.11867039589203973		0.26225323837664427		-0.14361256443669757
H		-58.9306		65.1521		-57.1429		-0.3739152185339763		0.3777530527424711		0.40165736980080835
12
Lattice="50.0 0.0 0.0 0.0 50.0 0.0 0.0 0.0 50.0" Properties=species:S:1:pos:R:3:forces:R:3 Energy=-6306.586060469725
C		-20.0565		21.2019		-19.401		1.134143926233836		0.6093191469140151		-0.35362551251106156
C		-20.842		21.7455		-18.4226		-2.632302421364741		0.521147433368216		1.065642694234993
C		-20.4032		22.3229		-17.2159		-0.3110868170419658		-0.3083122882407016		-0.7171205643112518
C		-19.0479		22.3525		-16.9755		1.4620294054793486		0.35831607878107624		0.06609519369705742
C		-18.1902		21.775		-17.9343		0.7931117282375344		0.011507486244178418		0.15163903416368466
C		-18.6741		21.265		-19.1558		0.3731501096668622		-0.35762424635294576		0.6116386933067689
H		-20.4974		20.9338		-20.3668		0.09796221712495039		-0.38715691383410084		-0.10608854849720503
H		-21.9453		21.7876		-18.552		0.22064718485410723		-0.1617723686331544		-0.21512445534755062
H		-21.169		22.7334		-16.5664		-0.15195764526259176		0.3198790641228787		0.502271679796342
H		-18.5288		22.9098		-16.1619		-0.6159654484849876		-0.3994371194106353		0.10574139815364111
H		-17.0958		21.7534		-17.6568		-0.7212243534267104		0.028307382577223764		-0.6241390881546913
H		-17.9532		20.8785		-19.8673		0.35149216540642		-0.2341737069581128		-0.4869305245307269
12
Lattice="50.0 0.0 0.0 0.0 50.0 0.0 0.0 0.0 50.0" Properties=species:S:1:pos:R:3:forces:R:3 Energy=-6306.534651821066
C		-73.5579		83.0721		-69.9881		2.243697770784573		-0.008575040289146746		-0.8609970267724153
C		-73.8907		84.4228		-70.0209		0.9255593287879975		0.9535735027651618		0.5229780073691834
C		-75.1814		84.772		-69.6628		0.05296277027962771		2.070802604356389		0.4522823902775769
C		-76.1271		83.845		-69.2943		-2.1586876913261217		-0.48203570982868205		-0.2891306762414069
C		-75.8286		82.4776		-69.3964		0.41692226614781813		0.45360599416490244		-0.0313643727674964
C		-74.5138		82.1136		-69.714		-0.13973431248712123		-0.20010643632233768		0.5940315734374673
H		-72.4933		82.7248		-70.2128		-1.036851995692852		0.4457125533134597		0.32516242392875544
H		-73.1609		85.2845		-70.0613		-0.24988777502057674		-0.9794316525081463		-0.49810438443376437
H		-75.3857		85.8631		-69.5556		-0.18675649758076707		-0.4104951768290474		-0.11845910263745461
H		-77.1727		84.1991		-69.0266		0.9395171277297264		-0.43073335794539247		-0.14561067151710974
H		-76.5841		81.7221		-69.245		-0.5108040397736598		-0.5145767736510996		0.38060867413621047
H		-74.114		81.1202		-69.5485		-0.2959369004265822		-0.8977405072260604		-0.33139683477954607
12
Lattice="50.0 0.0 0.0 0.0 50.0 0.0 0.0 0.0 50.0" Properties=species:S:1:pos:R:3:forces:R:3 Energy=-6306.614687377973
C		-120.943		133.66		-112.446		-0.809373801219471		-0.36263928583698624		-0.5010836244656206
C		-119.813		134.344		-112.909		-1.6886285912173002		1.3476683326863588		0.005566026883134973
C		-120.0		135.735		-113.194		0.6816573389462915		-0.8713946192207881		-0.05554559763209814
C		-121.21		136.378		-112.991		-1.8563088920267843		0.5210113705909873		1.0282334523388772
C		-122.367		135.681		-112.499		2.364078053097023		-0.7154915647950674		-0.3082266190846688
C		-122.212		134.296		-112.289		1.0433743700933327		0.7388570814831095		-0.3001383400386232
H		-120.865		132.56		-112.368		-0.14844860372136814		0.0996222241447889		0.30779189696876164
H		-118.919		133.768		-113.1		0.7817493550535748		0.028740510609195143		-0.11537850972051988
H		-119.199		136.344		-113.602		0.6232936066039761		0.14376194552809932		-0.13895619383820862
H		-121.322		137.483		-113.096		0.32438435670190524		-0.42279559127612243		-0.2604803085076772
H		-123.277		136.183		-112.203		-0.6346821536177201		0.3854407539220728		-0.1824779248750591
H		-123.105		133.754		-112.053		-0.6810951929596465		-0.8927811064135852		0.5206957419717021
12
Lattice="50.0 0.0 0.0 0.0 50.0 0.0 0.0 0.0 50.0" Properties=species:S:1:pos:R:3:forces:R:3 Energy=-6306.4740848178535
C		-51.0228		55.44		-45.6148		2.222969434569005		0.573624419423929		-1.3331938962832484
C		-49.7691		55.0929		-45.111		1.019354147706245		0.04899458114283568		0.31173864310551425
C		-48.5979		55.1663		-45.907		-2.0110814838317217		0.38391506132933967		-1.011447799917129
C		-48.6941		55.704		-47.237		1.4268496699446458		-0.8980730537038899		2.069256702893115
C		-49.9184		56.1375		-47.6762		-1.6011177025959777		0.21329197873027272		0.09197046698683606
C		-51.1078		55.9753		-46.8846		1.1248594157491405		-0.29540200813303286		-1.3037326026247664
H		-51.916		55.3508		-45.1109		-2.277827262115906		-0.4449073866597012		1.8917307226314766
H		-49.6787		54.832		-44.0492		0.039381997899743025		-0.45312581494579424		0.09658883668117837
H		-47.7031		54.688		-45.572		1.1520457973650706		-0.11675307287172809		0.5273901745931228
H		-47.7395		55.7553		-47.8052		-0.5459675773586925		0.13092381057404037		-0.17268150775872676
H		-49.9525		56.5921		-48.655		-0.35763905590692974		0.27966834826477754		-0.7587593222655038
H		-52.1128		56.0938		-47.2898		-0.19182738142462238		0.577843085426889		-0.40886057230805645
12
Lattice="50.0 0.0 0.0 0.0 50.0 0.0 0.0 0.0 50.0" Properties=species:S:1:pos:R:3:forces:R:3 Energy=-6306.645167136078
C		-83.4228		91.5643		-78.0778		-0.5795459270247438		0.5536153750178372		0.27021820731694757
C		-82.1724		92.1907		-78.1626		0.1249625022968933		-0.4608508999647932		-0.7764450664682832
C		-81.9945		93.4336		-77.5607		-0.3633548238359036		-0.701575571990106		0.2949061966069414
C		-83.0513		94.022		-76.8464		0.258481841472828		0.29882522625203634		-1.1958335347309472
C		-84.3449		93.4835		-76.8559		0.9947389206346106		-0.6238040219958019		0.44223081688739413
C		-84.4939		92.2019		-77.4132		-0.6416322053115531		0.14335627687747338		-0.4043042176210223
H		-83.6646		90.6507		-78.6078		0.17696835941648834		-0.6476628305288755		-0.23965437321758964
H		-81.3576		91.7934		-78.8193		-0.4159712151029042		-0.06818097539393775		0.48613816197051707
H		-81.0145		93.8695		-77.6991		0.4704254308816768		0.7327863470570801		0.2303968078936149
H		-82.888		95.0404		-76.5531		0.03970369432239682		0.9626462571967103		0.8118087387203506
H		-85.1385		94.0455		-76.3556		-0.38295984509736763		-0.08165509841631222		-0.04659409642379404
H		-85.5144		91.7679		-77.4696		0.3181832673475787		-0.1075000326892485		0.1271323076438082
12
Lattice="50.0 0.0 0.0 0.0 50.0 0.0 0.0 0.0 50.0" Properties=species:S:1:pos:R:3:forces:R:3 Energy=-6306.639989820603
C		-85.1511		95.4416		-77.9224		-0.25538705606665846		0.8070396509609831		0.8434578868696656
C		-83.8012		95.2199		-78.2099		0.315959365990972		-0.7087012300271874		0.5253742240570421
C		-83.3803		94.2108		-79.0755		-1.7897228747436924		0.3522659131800247		-0.8227178264238606
C		-84.3649		93.5583		-79.8602		1.4245982063625686		-0.5455238563818576		0.5572903041325074
C		-85.7034		93.824		-79.6464		-0.02376604313242355		0.12705280913526878		0.14061630370217207
C		-86.094		94.7504		-78.6644		-1.4179899571178054		-0.6025630078176609		-0.49074866408930545
H		-85.4704		96.0888		-77.0486		0.3400672115724652		-0.3431896620482299		-0.9152808298362465
H		-83.0193		95.6541		-77.6157		0.5342417530373742		0.7758605004624124		0.6588799878084914
H		-82.3434		93.9566		-79.1293		1.0979828006373769		-0.24776224406942668		-0.24533969928559618
H		-84.0642		92.711		-80.4942		-0.0066717040698200695		0.09437773941812042		-0.2616832248144452
H		-86.4146		93.2072		-80.189		-0.6078842656835594		-0.008155179149286089		-0.2137060805991396
H		-87.1921		94.8193		-78.4989		0.38857266605732727		0.299298514914777		0.22385766990077718
12
Lattice="50.0 0.0 0.0 0.0 50.0 0.0 0.0 0.0 50.0" Properties=species:S:1:pos:R:3:forces:R:3 Energy=-6306.42972888596
C		-142.881		160.788		-132.573		-0.2137083431698871		0.332740133316788		1.1272258076407813
C		-144.192		160.385		-132.473		0.8794314762043892		-1.838134124010156		-2.183652948376817
C		-144.654		159.41		-133.36		-2.0822161939145434		-0.14479609462592385		0.23333861266401149
C		-143.802		158.882		-134.346		-0.4167459398956954		0.7015499638030085		0.6353837048156527
C		-142.451		159.237		-134.377		-0.7290418953139848		0.19534243934715212		0.7169415641118819
C		-142.007		160.175		-133.44		0.29547852416195053		0.06443816915684067		-0.7504965681615834
H		-142.611		161.538		-131.84		0.8125442284794967		0.5330735466227563		0.19298674324449971
H		-144.803		160.735		-131.728		-1.914987224547136		1.271590676851044		2.1496719125397616
H		-145.785		159.145		-133.24		1.7745678673441272		0.05868152068822333		-0.5960286006545681
H		-144.24		158.316		-135.136		-0.34481999853803785		-1.1069452033229192		-0.8130771153126106
H		-141.805		158.775		-135.102		0.671413601308753		-0.2037127169836442		-0.5925333916481421
H		-141.0		160.533		-133.436		1.2680839493026304		0.1361717405788927		-0.11975972086286743
12
Lattice="50.0 0.0 0.0 0.0 50.0 0.0 0.0 0.0 50.0" Properties=species:S:1:pos:R:3:forces:R:3 Energy=-6306.284701776393
C		-147.382		166.302		-138.417		0.9529669281165645		3.2886359372189102		0.8694240743658466
C		-148.464		166.955		-137.756		1.661053253121039		-0.4285915262004475		-1.8206891893258048
C		-149.676		166.331		-137.8		-0.732648587351791		-0.9772198867582764		1.3004973835660605
C		-149.81		165.004		-138.248		1.251928062879642		1.42920814283867		0.27859403853618375
C		-148.703		164.383		-138.79		-0.6957480124973774		-0.08917202692653518		0.21277539269095366
C		-147.491		165.039		-138.858		0.31178440874109		-1.1982271803156836		-1.746116451569996
H		-146.456		166.86		-138.734		-0.5183061073078362		-0.16372841246648687		0.7316427203883109
H		-148.379		167.986		-137.488		0.15122709202144047		1.0625079024642419		0.5852604094021566
H		-150.485		166.795		-137.259		-0.9415100926038942		0.4151638373004605		0.07659763573075493
H		-150.734		164.531		-138.106		-1.7944541672871634		-1.0700087872909818		-0.08430060926290267
H		-148.826		163.443		-139.258		-0.06616296797535948		-1.665172931653793		-0.5352235030535676
H		-146.715		164.694		-139.543		0.4198701901436456		-0.6033950167880157		0.13153814995406674
12
Lattice="50.0 0.0 0.0 0.0 50.0 0.0 0.0 0.0 50.0" Properties=species:S:1:pos:R:3:forces:R:3 Energy=-6306.5884981305835
C		-63.7342		72.1056		-60.1062		-1.0118782025797908		0.5802373994984372		-1.3846875896608943
C		-64.9272		71.6355		-59.4926		0.8613658772263307		1.0540296384966157		-0.8807211415305014
C		-64.8121		70.5745		-58.6088		-1.3372429209022034		-0.21952021893357004		0.69032601881115
C		-63.5928		69.9041		-58.3843		-0.2123931725008025		1.4407510074618104		-0.36865823824613375
C		-62.4401		70.3356		-59.0607		-1.4655999992293185		0.2071470936901982		-0.7690595727496689
C		-62.5391		71.3956		-59.9999		1.2529943507664947		0.08842141908103046		1.0721654800119735
H		-63.8467		73.0056		-60.7825		0.3907775412508295		-0.6950617850740535		0.4610953090275926
H		-65.8807		72.1702		-59.7528		0.49738247009910375		-0.46201607247772675		0.5400514690744344
H		-65.7576		70.3741		-58.0429		0.6456264654340046		-0.5316623709630874		-0.10270831922240527
H		-63.5464		69.2051		-57.578		0.14898087348973282		-1.0697925575184022		0.6711661583442693
H		-61.5157		69.8115		-58.9288		1.0087496843006576		-0.4205750323535745		0.20734229183923814
H		-61.5611		71.7268		-60.4374		-0.7787629159329762		0.02804142767025998		-0.13631186569905437
12
Lattice="50.0 0.0 0.0 0.0 50.0 0.0 0.0 0.0 50.0" Properties=species:S:1:pos:R:3:forces:R:3 Energy=-6306.51584694333
C		-82.3001		91.5655		-75.4817		-0.8961304310288556		-1.1865567375556183		2.0192783662736504
C		-81.1858		91.6716		-76.285		-0.7193810781763191		0.5683606514238437		-2.804072575910761