12
Lattice="50.0 0.0 0.0 0.0 50.0 0.0 0.0 0.0 50.0" Properties=species:S:1:pos:R:3:forces:R:3 Energy=-6306.387145530125
C		-59.3896		66.0675		-54.3954		-0.9053486070529979		1.2699765897329687		0.14235375234805228
C		-59.6859		64.8258		-53.9605		-1.8566123850393326		-0.7184360949347735		1.2927527581633325
C		-58.7177		63.8509		-53.969		0.12903847207656932		-1.7677676081181954		0.37283592086532524
C		-57.4109		64.1782		-54.3138		0.43256074377848847		-0.04413401353437901		-0.7977394567472418
C		-57.1193		65.463		-54.7949		-0.003236093233767393		-1.54201287548971		1.1459236408765967
C		-58.1326		66.3643		-54.7997		0.6485191621347666		1.922245911459762		-1.5882379157713384
H		-60.1536		66.8206		-54.3718		-0.6683281747179485		0.8004387550711491		-0.11415157931059026
H		-60.6893		64.7358		-53.5001		0.09312514939903092		-0.7378116709536096		-0.32204069336186497
H		-59.0275		62.8106		-53.7368		0.3863910336360501		0.1952351729248925		0.1997472017940993
H		-56.6116		63.4466		-54.3581		0.27551622241062096		-0.6269604624548425		0.22029144702611508
H		-56.133		65.7663		-55.0522		1.2829698650494232		0.16777682002069255		-0.5206011767988664
H		-57.9516		67.3015		-55.2993		0.18540461155909693		1.081449630542232		-0.03113379623949454
12
Lattice="50.0 0.0 0.0 0.0 50.0 0.0 0.0 0.0 50.0" Properties=species:S:1:pos:R:3:forces:R:3 Energy=-6306.324080626555
C		-169.979		188.373		-157.18		-1.8699263797592542		0.45124315039557034		-0.5156938665356474
C		-169.036		189.348		-157.562		-0.9684062480993865		-2.280608835739725		1.7359419794505704
C		-167.731		189.03		-157.327		1.945185036406013		-0.10047500762837118		-1.4889939523178926
C		-167.344		187.775		-156.857		-1.4357258892535307		0.09832335426949923		0.6581715460541914
C		-168.327		186.854		-156.447		0.45384742074808015		0.396250545623002		-0.9744592933359351
C		-169.666		187.074		-156.733		1.1666087825597107		2.2868652552332422		0.05073989736426992
H		-171.04		188.694		-157.226		0.017523918972266173		-0.3568752840134392		-0.2953910038116697
H		-169.29		190.29		-157.943		-0.7835574061911915		1.7462730831722024		-0.7010917418045642
H		-167.002		189.705		-157.798		0.4935741521544522		0.08408895605388046		0.421326771484453
H		-166.322		187.506		-156.836		1.6286305114643067		-0.32018014029849223		0.3324501128846
H		-168.095		185.921		-155.991		0.761470601929961		-1.2554716086247661		0.4062619069603531
H		-170.343		186.278		-156.562		-1.4092245523534883		-0.7494335198646648		0.370737540763146
12
Lattice="50.0 0.0 0.0 0.0 50.0 0.0 0.0 0.0 50.0" Properties=species:S:1:pos:R:3:forces:R:3 Energy=-6306.527754945445
C		-4.47358		3.24856		-2.91618		-0.6672217776223893		1.0345072010674377		-0.6898727333307003
C		-3.12315		3.18656		-3.31124		-1.0141318258884902		0.7972647282667525		0.7919533434368435
C		-2.55347		4.28163		-3.94067		1.1851952870303333		1.7378126112381822		-0.9313566521080084
C		-3.26414		5.47289		-4.31416		-1.7174301912366796		-2.0052278019312713		0.9251148364802259
C		-4.65351		5.46717		-3.98258		-0.06506798657766287		-1.2269044417880721		0.2800681548002848
C		-5.29433		4.37181		-3.32197		2.331373569960156		-0.6676244637933935		0.6455818310838026
H		-4.82981		2.46677		-2.23577		-0.44645508789516053		-0.16434105491845252		-0.09502236639292667
H		-2.4782		2.41043		-2.91556		0.2871640394632109		-0.5882129613836041		-0.021082068583124478
H		-1.44857		4.2657		-4.05721		-0.23957261213830264		0.012512170500222197		-0.2990860903748181
H		-2.88505		6.32639		-4.87011		0.6257061755076924		0.20977280704274748		-0.02077230207895784
H		-5.33138		6.28496		-4.18638		-0.07097535311130551		0.8507781774131		-0.4048427094589428
H		-6.32155		4.45306		-2.94924		-0.20858418606933912		0.009662976864288434		-0.18068329489574042
12
Lattice="50.0 0.0 0.0 0.0 50.0 0.0 0.0 0.0 50.0" Properties=species:S:1:pos:R:3:forces:R:3 Energy=-6306.273375140835
C		-157.838		176.842		-146.512		1.5261570368010857		0.21620899806657096		1.0850487635368586
C		-157.202		176.655		-147.737		-2.0294448165513344		0.37187340270048613		-0.4370380113334825
C		-157.975		176.69		-148.908		-0.9696499935237357		-0.6692583998275725		0.483534560104819
C		-159.432		176.764		-148.786		2.8944714304031005		0.6176489553873633		-0.4144861973615647
C		-159.99		176.932		-147.504		0.5920958413188004		0.6195377391630181		-1.6141205424160465
C		-159.213		177.084		-146.383		1.6794687278119704		-0.9941824310748344		0.5315817925912367
H		-157.072		176.861		-145.692		-1.0191787470512466		0.17227311373879123		0.19694325957311684
H		-156.139		176.638		-147.767		1.3602710574385457		-0.2879400498075632		-0.15098386566607724
H		-157.353		176.579		-149.82		-0.8778408375467885		0.1992092755988657		-0.3306848449029373
H		-159.952		177.01		-149.72		-0.5873667085019523		-0.5012039006696788		0.028427864469531605
H		-160.992		177.242		-147.442		-2.0990911150366953		0.14138840596977864		0.06983527456484494
H		-159.609		177.329		-145.408		-0.469891875561751		0.11444489075477461		0.5519419468397007
12
Lattice="50.0 0.0 0.0 0.0 50.0 0.0 0.0 0.0 50.0" Properties=species:S:1:pos:R:3:forces:R:3 Energy=-6306.627923226082
C		-16.3463		17.5113		-13.4123		1.3106306151914053		0.4228717473506029		-0.4867590833745364
C		-16.5972		16.4816		-14.3075		0.1362182775454051		-0.02136072473951209		-0.022631826701081666
C		-15.5536		16.0755		-15.1531		-0.8550807127999073		0.14564142191045165		0.7857905635190383
C		-14.286		16.591		-15.0743		1.2361385586515719		1.2275684034583574		-0.376891270397961
C		-13.9806		17.6366		-14.1649		-0.7068848999375171		-1.027462687044894		0.42155333709158427
C		-15.0366		18.0576		-13.3399		-0.4589245266614912		-0.2348103635132402		-0.20064904192525373
H		-17.1093		18.0217		-12.847		-0.7092416244814184		-0.044604525405747664		0.6284347329851309
H		-17.5711		15.9921		-14.3547		-0.35944227337067675		-0.03586421460790378		-0.15441510562682212
H		-15.7527		15.3597		-15.9022		-0.3652167652949624		-1.3338398088096157		-1.1621194822421044
H		-13.5708		16.2816		-15.855		0.24905329779122473		-0.08792529902256438		0.2886228833747659
H		-12.9497		17.9759		-14.0052		0.034593112646334204		0.29256633849952207		-0.19073003461205337
H		-14.9284		18.8345		-12.6		0.48815694072003196		0.6972197119245436		0.4697943279092935
12
Lattice="50.0 0.0 0.0 0.0 50.0 0.0 0.0 0.0 50.0" Properties=species:S:1:pos:R:3:forces:R:3 Energy=-6306.441711589636
C		-129.733		143.631		-119.109		-1.915266394924148		-0.3107582814850068		1.0065700573398155
C		-128.583		143.804		-118.336		-0.11686872109016616		1.0082154090718574		-0.258694625967224
C		-127.337		143.418		-118.85		0.02637581564561497		0.951499239610269		0.6061846636756384
C		-127.267		143.034		-120.204		1.3959708242907518		-0.33194345130333286		0.5390610287296878
C		-128.43		142.819		-120.941		-1.0544202404829455		0.05357237882990917		1.4261841656124867
C		-129.719		143.026		-120.351		2.2243072823676284		-0.3084566299699838		-0.6348686100161445
H		-130.745		143.812		-118.652		0.6612695710502948		0.2152242141486933		-0.1671218572113349
H		-128.687		144.478		-117.462		0.2490933041558067		-0.7205183799314077		0.32112754037697266
H		-126.482		143.564		-118.14		-0.057517942259225546		-0.19618334433430962		-0.8697532784096171
H		-126.243		142.848		-120.634		-0.7867069560938645		-0.02788181358843175		0.08671441229611751
H		-128.339		142.333		-121.877		0.03084331300874466		-0.46412566258951893		-1.6104986294477568
H		-130.605		142.632		-120.827		-0.6570798556684913		0.13135632154126245		-0.44490491840070384
12
Lattice="50.0 0.0 0.0 0.0 50.0 0.0 0.0 0.0 50.0" Properties=species:S:1:pos:R:3:forces:R:3 Energy=-6306.529075795501
C		-62.5354		68.305		-57.65		-1.1215553425488212		-0.018542127230732904		0.1499406662852624
C		-63.702		69.0455		-57.9113		-1.0558171208092546		0.4570546147827536		-1.2279363797372114
C		-63.5979		70.3656		-58.4467		-1.3164990552237774		-0.38938359198207956		0.21803237297879624
C		-62.3581		70.9235		-58.6789		1.0985894781300989		1.0547796292773712		1.0555757456481392
C		-61.2087		70.2383		-58.2851		-0.6172028175735935		-1.759731779575843		0.026783438334613798
C		-61.2901		68.8894		-57.824		-1.3282045678304302		2.2884683894520172		-0.827160538352892
H		-62.7006		67.287		-57.281		0.3883920203519592		-0.2991471797850023		-0.004650662749557567
H		-64.7225		68.5438		-57.9216		0.9536552638444489		0.4991467096395176		0.46527273453647194
H		-64.4677		71.0407		-58.6526		0.09600252232518436		-0.7933993832548499		0.08658112631026095
H		-62.2357		72.0001		-58.9087		-0.24891214422981414		-0.22723188279427092		-0.38890562391165645
H		-60.2471		70.6965		-58.3597		1.1041224920491444		0.5255405744290507		-0.1929893657696844
H		-60.4006		68.3657		-57.7081		2.047429271514855		-1.337554075802056		0.639456589271582
12
Lattice="50.0 0.0 0.0 0.0 50.0 0.0 0.0 0.0 50.0" Properties=species:S:1:pos:R:3:forces:R:3 Energy=-6306.475673785047
C		-170.528		188.957		-157.21		1.8120905977320585		0.578490232082755		0.3630557016986631
C		-169.437		189.64		-156.604		-1.311007590331187		0.6758637694368389		-0.3370696138643161
C		-168.131		189.296		-156.882		1.9854548876359255		0.9296499024334076		1.4700674451703857
C		-167.777		188.226		-157.671		0.08314849795383006		-1.892365630836481		-0.9031739166101507
C		-168.821		187.452		-158.245		1.4377838001925658		0.8866180179634051		0.15742036522227543
C		-170.113		187.874		-158.012		-1.6197306894287593		0.05259397124777462		-0.32553826778316336
H		-171.545		189.382		-157.104		0.08800952836084873		-0.5842263117263945		-0.14160093335386242
H		-169.516		190.575		-156.028		-0.6242209520781031		-0.11705708010490093		0.21279657858068085
H		-167.345		189.911		-156.342		-0.450418237669833		-0.5599101553699379		-0.6809565590792958
H		-166.739		187.883		-157.858		-0.08943885600856052		0.46365263103709053		0.16386797194396166
H		-168.612		186.639		-158.971		-0.07038667334043903		0.1294193038710345		0.37316270807216106
H		-170.824		187.349		-158.616		-1.2412842615962842		-0.5627285986125298		-0.3520314799973396
12
Lattice="50.0 0.0 0.0 0.0 50.0 0.0 0.0 0.0 50.0" Properties=species:S:1:pos:R:3:forces:R:3 Energy=-6306.468957411566
C		-15.4246		15.592		-13.6139		1.159424606215567		-0.38316949284595464		-0.22520539073538928
C		-15.2514		16.167		-12.3289		1.5372357144665383		-0.19195891906035584		-1.4572139864417184
C		-13.8992		16.2634		-11.8805		-1.3045202857772935		0.24197767342090185		-0.043897883423633134
C		-12.8079		15.8678		-12.6657		0.2674791083167078		-0.4476588269549277		1.4593467164816107
C		-12.9456		15.3129		-13.9192		-1.8225848122357649		-0.44288624249531383		-0.905466929218683
C		-14.304		15.1803		-14.3676		0.9209560257579514		0.24144128988754157		0.13575938706014895
H		-16.3291		15.3204		-14.1664		-0.8066249320273668		0.5285447541611926		0.5661551591655922
H		-16.0822		16.6488		-11.8414		-0.595755086704425		0.018472707446432608		0.8116980270199071
H		-13.6817		16.6317		-10.8721		-0.08015460263417702		0.20574728230632966		0.1811457849253677
H		-11.8716		15.8074		-12.1072		0.6332815194808524		0.32147407365578723		-0.22077332317328394
H		-12.0955		14.9078		-14.497		-0.14209525364014294		0.2022217857051237		0.019290215395177827
H		-14.5425		14.7785		-15.3551		0.23335805020361558		-0.2942060338046949		-0.3208378284771594
12
Lattice="50.0 0.0 0.0 0.0 50.0 0.0 0.0 0.0 50.0" Properties=species:S:1:pos:R:3:forces:R:3 Energy=-6306.668874468655
C		-70.2606		79.6917		-67.1574		-0.1793738320755871		-0.18780643325176216		0.06124830435721102
C		-71.3409		80.0228		-67.9594		-0.5168049944609516		-0.714903347822763		0.2198046343609515
C		-72.6292		80.0693		-67.4087		0.25159642731148785		0.2837168072410457		0.02970729680521721
C		-72.8453		79.8095		-66.0573		0.639744552821272		0.1985868629550355		1.0099420076625618
C		-71.7137		79.5564		-65.1978		-1.7692450668163553		-0.02141739185232611		-0.4252855503838177
C		-70.4496		79.4661		-65.791		-0.05607514203115325		0.26377486862644417		0.44698998018871
H		-69.2808		79.5386		-67.5952		0.5820210251563928		0.03276752658542387		-0.195715146455751
H		-71.271		80.0158		-69.0368		0.335629487583491		0.4987364130032717		-0.7746808783499318
H		-73.4185		80.3882		-68.0793		-0.7570385343678555		-0.12113366694932633		-0.21731673213575387
H		-73.8735		79.8493		-65.6355		0.3593943994305408		0.006579761422169017		-0.08157225747371386
H		-71.9644		79.4222		-64.1087		0.6719168690338989		-0.05528262520475614		-0.6807896430646003
H		-69.5626		79.2403		-65.2139		0.4382347569927571		-0.1836187233303939		0.6076679844889171
12
Lattice="50.0 0.0 0.0 0.0 50.0 0.0 0.0 0.0 50.0" Properties=species:S:1:pos:R:3:forces:R:3 Energy=-6306.4690068562295
C		-100.355		111.661		-91.7738		-0.03943449982549903		0.30526182865235946		0.4234871151718782
C		-101.315		111.243		-92.6947		-1.532854657590378		-0.4846607546944195		1.1519920098877534
C		-100.951		111.146		-94.0111		-1.1969338640231382		-0.5089934175329208		-1.1770824282384393
C		-99.6349		111.354		-94.3756		-0.10992761683519851		-0.027862941691514567		0.8155878489335336
C		-98.6378		111.639		-93.4715		0.865006559247413		-0.047299195744035225		1.4674622492207516
C		-99.0144		111.853		-92.1355		-0.7792935916174052		0.24068980786697536		-0.13028252603329302
H		-100.693		111.917		-90.7729		0.029340503233799445		-0.07953373265222018		0.6243049243060753
H		-102.379		110.951		-92.3979		1.1313577760464595		0.5862567632840844		-0.09710208028643853
H		-101.749		110.868		-94.7439		0.6200436294133487		0.17306213386494212		0.07886144060781869
H		-99.3712		111.318		-95.3671		0.717668157854225		-0.3890082109262336		-3.08029235497975
H		-97.5541		111.606		-93.6987		-0.3016925204539507		0.39409554983007117		-0.402481408351484
H		-98.3538		112.299		-91.3974		0.5967201245503239		-0.1620078302570885		0.325545158339531
12
Lattice="50.0 0.0 0.0 0.0 50.0 0.0 0.0 0.0 50.0" Properties=species:S:1:pos:R:3:forces:R:3 Energy=-6306.535483887433
C		-20.7401		24.1767		-18.3663		0.9955152909334001		1.0405396260569457		0.08087075769784381
C		-21.8614		23.4184		-18.5946		-0.6333383408598539		-2.3549869409891815		-0.9075698344623573
C		-21.8406		22.2953		-19.4891		0.3057615482551967		-0.38948540766572004		-0.6204153595027612
C		-20.6538		21.9329		-20.1691		0.2232411193720657		1.819548956513157		1.1337827890892875
C		-19.5202		22.7325		-19.8596		-0.22494452661260755		-0.22327464655677962		-1.1328607915096545
C		-19.5602		23.8998		-19.099		0.6213512924613165		-0.5283573721656444		0.960318534696028
H		-20.7714		24.9639		-17.5856		0.059094182739341736		0.011014502931521451		-0.35288991990779073
H		-22.7745		23.5218		-18.0304		-0.6273916364484409		0.48786069821828837		0.4831212295668888
H		-22.707		21.623		-19.6896		-0.07593650227390394		0.6439423414668796		0.35972833430405643
H		-20.5429		21.198		-20.9709		-0.3097828049604316		-0.5330356485627347		0.1846311723178668
H		-18.5784		22.453		-20.3251		0.5258803714176851		-0.03210258789595195		-0.2950935786024898
H		-18.57		24.4112		-18.9564		-0.8594500968678925		0.0583365300712821		0.10637666631308244
12
Lattice="50.0 0.0 0.0 0.0 50.0 0.0 0.0 0.0 50.0" Properties=species:S:1:pos:R:3:forces:R:3 Energy=-6306.464002093198
C		-97.1886		106.902		-89.8493		-0.007461084150408058		0.5373675459471977		1.9261081197258554
C		-97.0237		107.145		-88.445		-0.4678748451623592		0.06662381249898852		-0.4492815015574314
C		-95.7267		107.258		-87.9249		0.3939352672614312		-0.33247772653213287		1.8027115220745271
C		-94.6306		106.883		-88.6943		-0.8937634220724655		0.6566065670057505		-2.2524428638342244
C		-94.7712		106.669		-90.0908		-2.6573176606601323		0.3921622859704017		2.7619467996030957
C		-96.067		106.712		-90.6282		0.8695095378336294		-0.6688085596253066		-1.4110661820978814
H		-98.1651		106.938		-90.3213		-0.5714549226093887		-0.21795215456138256		-0.05136133298891365
H		-97.8883		107.189		-87.7404		0.22498556141843837		0.3327422416213482		-0.5104249563293177
H		-95.4859		107.546		-86.8408		-0.7387562428186555		-0.4331528174054762		-1.0976399697470585
H		-93.6368		106.867		-88.3461		1.599366112882925		0.04163973497343831		1.0806280088284912
H		-93.9213		106.418		-90.6125		2.2411525843818123		-0.658537979671172		-1.8682893584013283
H		-96.2007		106.458		-91.6983		0.007679113695173421		0.2837869469342202		0.0691117147241861
12
Lattice="50.0 0.0 0.0 0.0 50.0 0.0 0.0 0.0 50.0" Properties=species:S:1:pos:R:3:forces:R:3 Energy=-6306.657517473275
C		-153.908		173.679		-144.621		-1.608804683866705		0.28760966305635627		0.12695356455475057
C		-153.802		172.354		-144.158		0.40373024456001505		0.465205320212607		0.3736326028787804
C		-154.962		171.595		-143.848		0.022648641715501065		0.5169140092333344		-0.5644691840042191
C		-156.258		172.138		-144.155		2.0270660319426446		-0.22902414735871718		0.6934902240016196
C		-156.367		173.46		-144.579		0.884115254762161		0.3670125265596548		-0.8439183200167949
C		-155.215		174.233		-144.819		1.4939885772431425		-0.6960592702413549		0.394650033929412
H		-153.022		174.33		-144.736		-0.06518877700234538		-0.24570803551888734		-0.16964992006730176
H		-152.74		172.054		-143.979		-0.6928427688133789		-0.5547364274011933		0.12363776712419397
H		-154.82		170.601		-143.377		-0.2911225098302008		0.1360894138569188		-0.2830522285060109
H		-157.131		171.538		-143.998		-0.8989800874633516		-0.592023850431378		0.20039023468496978
H		-157.308		173.899		-144.879		-0.8328719868286204		0.14473135424930603		0.12752311531838764
H		-155.236		175.273		-145.14		-0.44173798784092444		0.3999894437833533		-0.17918794131984966
12
Lattice="50.0 0.0 0.0 0.0 50.0 0.0 0.0 0.0 50.0" Properties=species:S:1:pos:R:3:forces:R:3 Energy=-6306.6935677634565
C		-2.57223		2.20184		-3.22896		-0.2487534557451099		0.44714990280291284		0.7005197227819298
C		-1.20826		2.42176		-3.00343		0.3222142942446781		-0.07987044431710781		0.34073204741781227
C		-0.68667		2.47749		-1.68039		0.8252274801814722		0.2739317544005136		-1.5996415294493787
C		-1.5126		2.38139		-0.597017		-0.7225592187457114		-0.7565090413908628		0.8979924753320394
C		-2.85925		2.12147		-0.789496		-1.3317271847961392		-0.2626127300151949		-0.542916140751164
C		-3.39241		2.07421		-2.10453		-0.20583305430648735		-0.40960099858519705		1.0294079836671755
H		-3.07773		2.1726		-4.20363		0.43375178158883165		-0.036276928081084625		-0.286732248404863
H		-0.551268		2.51946		-3.86336		0.4721751179784188		0.040854828612283		-0.31085649762427614
H		0.386066		2.55212		-1.46238		0.23555834883356017		0.19039404285603995		-0.4290990105347138
H		-1.12909		2.31958		0.417081		0.3784453479691636		0.22094481575153688		0.4609819748019646
H		-3.49751		1.85299		0.0770994		0.009713061953109533		0.33613501787938443		-0.21736429754351516
H		-4.45905		1.8478		-2.22836		-0.16821246773372373		0.03545972866471408		-0.04302437684888569
12
Lattice="50.0 0.0 0.0 0.0 50.0 0.0 0.0 0.0 50.0" Properties=species:S:1:pos:R:3:forces:R:3 Energy=-6306.478509082805
C		-108.099		121.395		-102.201		1.197592323532742		0.07641112791026815		-0.3011517660452826
C		-109.276		121.014		-102.85		1.0142110672867175		-0.07927883348868199		0.9783492695157486
C		-110.479		121.382		-102.312		-1.50494157938798		-0.4953561837284718		-0.15157203121631926
C		-110.5		122.296		-101.263		0.45087445420784206		-0.21972878681884556		-0.7912150768863255
C		-109.335		122.833		-100.724		-0.5480706882906168		-0.16620006531995193		-0.03586123212828199
C		-108.123		122.302		-101.127		2.4436881989340358		0.37847753818025387		0.5157032253510124
H		-107.124		121.005		-102.578		-0.352850170653521		0.16743229220231332		0.21426236447066596
H		-109.269		120.323		-103.649		0.26060084182204757		-1.0341235410595382		-1.3624270302506631
H		-111.4		120.871		-102.715		0.41480336864272344		0.7642323780597388		0.3411777738550826
H		-111.45		122.623		-100.972		-1.8590597152572614		0.8304285646874374		0.9719412577821449
H		-109.421		123.657		-100.029		0.12722892969914174		0.3362416672368947		0.6820625447983554
H		-107.13		122.633		-100.589		-1.6440770819579331		-0.5585361578614166		-1.0612692478240748
12
Lattice="50.0 0.0 0.0 0.0 50.0 0.0 0.0 0.0 50.0" Properties=species:S:1:pos:R:3:forces:R:3 Energy=-6306.525570030611
C		-33.5739		39.0296		-33.1483		-0.645155387919949		-1.0095621528872831		-0.3421763903077578
C		-33.463		38.8171		-31.759		-0.14546329588614335		0.3597706546614483		-0.4769812296227466
C		-34.5986		38.6269		-30.9479		0.2882070331557759		-0.2711983632492052		-1.391044590708553
C		-35.87		38.4973		-31.5111		1.527416260266231		0.42415611620428323		-1.4572651513938506
C		-36.0054		38.5494		-32.8968		1.526976498788204		0.4843906860224602		-0.3334885300136075
C		-34.8577		38.7933		-33.6825		-0.1427872917565232		0.7535314468650047		-0.08290784270158905
H		-32.7265		39.2211		-33.8698		-0.4684333916046331		-0.08162517077596941		0.9009741322008304
H		-32.4713		38.8079		-31.3443		0.7995198428152632		0.17819786092954015		0.6901938641106671
H		-34.5069		38.507		-29.8981		0.33238449833292066		-0.05574866335669211		1.5056396853077285
H		-36.7092		38.4414		-30.9067		-2.103093911221513		-0.36630351916266785		1.6045806699692506
H		-36.9263		38.5483		-33.4505		-1.0620743630557705		-0.301004133304004		-0.04515540996071732
H		-35.0355		38.9577		-34.7438		0.09250355950819986		-0.11460481336897752		-0.5723692583017171
12
Lattice="50.0 0.0 0.0 0.0 50.0 0.0 0.0 0.0 50.0" Properties=species:S:1:pos:R:3:forces:R:3 Energy=-6306.4859694907245
C		-147.179		166.049		-138.542		0.8802896590045282		-0.34021900950080186		0.02298417067295248
C		-148.373		166.772		-138.404		0.2331785357836213		-0.6490258751380962		1.0269695494660498
C		-149.528		166.147		-137.876		0.910011251143105		-1.6479142991016786		-0.8864399433611594
C		-149.507		164.717		-137.641		0.5146829602100479		2.054244700249208		-1.0904726084173342
C		-148.316		164.008		-137.85		-0.35643989341072035		0.6889574720412478		0.44748825997379876
C		-147.161		164.675		-138.239		-0.9655027527655113		1.3928616407070975		0.14579188286516473
H		-146.186		166.527		-138.787		-0.9114307571768898		-0.08310730888181188		0.06375816380307248
H		-148.285		167.845		-138.465		-0.3658055479099538		0.8763766457407393		-0.4123140265997774
H		-150.441		166.729		-137.815		-0.5437740150189283		0.17387887048275066		0.35515922694553603
H		-150.432		164.221		-137.429		-0.8550324789053344		-0.5561712057875241		0.5644526775221745
H		-148.19		162.976		-137.571		-0.323489715659493		-0.9609001182222772		0.1326587395388608
H		-146.249		164.178		-138.072		1.7833127547055285		-0.948981461166791		-0.37003609240933844
12
Lattice="50.0 0.0 0.0 0.0 50.0 0.0 0.0 0.0 50.0" Properties=species:S:1:pos:R:3:forces:R:3 Energy=-6306.40605519253
C		-144.615		162.312		-136.402		1.6755324203538944		-0.7274542391360058		0.7826195191942634
C		-145.991		162.465		-136.221		-0.5278904084165843		-0.4533432788478726		-0.9649702258868345
C		-146.544		162.026		-134.994		0.6548665986788105		0.31406790826807		0.9296133413470097
C		-145.767		161.471		-133.924		-1.2109141344061554		0.43563526889205456		-0.6666911533600228
C		-144.408		161.3		-134.112		-0.40369034103955803		1.0048822824062569		-0.9469230874291937
C		-143.858		161.788		-135.28		1.409748491747737		-0.4727126842192153		-2.8119814948029997
H		-144.046		162.449		-137.382		-0.8356114457832972		0.18202330242098583		1.0021221517824774
H		-146.638		162.761		-137.123		0.571535552403302		-0.10311748457327741		1.3182962563062184
H		-147.58		162.245		-134.781		-0.8683631857955507		-0.12442411330309772		-0.028587118596922718
H		-146.219		161.18		-132.962		-0.2766065244006351		0.006106524181490803		-0.16610256908955684
H		-143.727		160.851		-133.44		0.6880435477254189		-0.7579915394511425		1.401365615705946
H		-142.774		161.493		-135.474		-0.8766505710673819		0.6963280533617532		0.15123881625167787
12
Lattice="50.0 0.0 0.0 0.0 50.0 0.0 0.0 0.0 50.0" Properties=species:S:1:pos:R:3:forces:R:3 Energy=-6306.347002256171
C		-21.1242		23.0175		-18.692		-1.7882141514315664		-0.40455412884450337		0.24309476630544966
C		-22.3978		23.2467		-19.2567		-0.07594874072476576		-0.1866858436669681		0.5408595153636898
C		-22.6403		23.9949		-20.4324		-0.28102583929125413		-1.2785796036240853		1.18280338979572
C		-21.5655		24.6016		-21.0395		1.2503269855433652		0.17594845422996097		0.8318458081504747
C		-20.2867		24.4038		-20.4615		-1.0635309958186407		0.4118382182559769		-1.3149444634319505
C		-20.0939		23.5327		-19.3817		1.1837052813489368		2.2827280931992573		-2.093429854493913
H		-20.8987		22.5399		-17.73		-0.5412015749230716		-0.37260472727257415		0.03017338637921561
H		-23.2175		22.8586		-18.6791		-1.0242677828831448		-0.3729539859206983		0.21876858264681642
H		-23.6621		24.0349		-20.8117		-0.30541208391882274		0.2605459230593567		-0.12758986115544083
H		-21.6955		25.323		-21.8286		-0.07166759691593552		0.38331167484861406		-0.818869862069064
H		-19.501		25.0195		-20.9165		0.5577129420637401		-0.32883154235036927		0.14328068644567973
H		-19.0855		23.4944		-19.1186		2.1595235569511595		-0.570162531913967		1.1640079060633222
12
Lattice="50.0 0.0 0.0 0.0 50.0 0.0 0.0 0.0 50.0" Properties=species:S:1:pos:R:3:forces:R:3 Energy=-6306.514802808418
C		-104.922		117.353		-97.6334		-1.1657983708555828		-0.26080617011738905		0.21291243248736866
C		-106.335		117.132		-97.434		2.052787707531901		0.7039776507930835		-0.9498464831012352
C		-107.16		117.709		-98.4055		-3.031537349225844		-0.724218094480176		2.0318313658914535
C		-106.659		118.551		-99.3479		-0.49649014304950156		1.2582135872605027		-2.2509659193566884
C		-105.325		118.851		-99.4865		1.4949204992808267		0.4888066584790204		-0.6191205005483422
C		-104.428		118.232		-98.6196		0.26318377201864285		-1.1543140245395045		0.5244385482087991
H		-104.222		116.739		-97.0596		0.25868758114466905		0.13909755308786903		0.40067603116111444
H		-106.666		116.571		-96.5618		-0.32542827599159424		-0.40394611437815775		0.054671988213225796
H		-108.316		117.621		-98.3468		1.6119561878077509		-0.14857736456572956		-0.02819687656503019
H		-107.303		118.993		-100.121		-0.4264711374555419		-0.0013313686187547125		0.13288252835461997
H		-104.958		119.494		-100.331		-0.2757140430848456		-0.28998433390005074		0.6007261603250753
H		-103.335		118.253		-98.7387		0.03990362330118167		0.3930819695572245		-0.11000932649242307
12
Lattice="50.0 0.0 0.0 0.0 50.0 0.0 0.0 0.0 50.0" Properties=species:S:1:pos:R:3:forces:R:3 Energy=-6306.619180057867
C		-140.714		157.449		-129.749		-0.23106539754952038		-0.04267527246694888		-0.5570739200937401
C		-141.93		157.008		-130.273		0.34715815971739666		-0.4508166043875918		0.2809689664901904
C		-141.983		156.471		-131.552		0.22711242934321196		0.162491043377881		-0.7106919837526702
C		-140.787		156.362		-132.291		0.8170420648594688		-0.177028111853049		-1.0067972400116962
C		-139.569		156.86		-131.796		-0.6869954118266093		1.1288313586964909		1.794881073249579
C		-139.554		157.483		-130.495		0.33083067787203035		-1.3029838459735095		-1.7007989078463903
H		-140.705		157.738		-128.735		0.10353364332464203		0.7217610969145078		1.708110868015709
H		-142.76		156.954		-129.576		-0.7295313305043332		0.18571710343257314		0.03432679778493331
H		-142.945		156.228		-132.015		-0.13595062571038066		-0.40699287157800396		-0.00870395539969551
H		-140.712		155.886		-133.306		-0.5482959683461869		0.27874424238058454		0.5532679161418986
H		-138.633		156.887		-132.344		0.29964072874034625		-0.3452560576275686		-0.5683772607500134
H		-138.603		157.829		-130.087		0.20652103007993444		0.24820797050669696		0.18088769759395792
12
Lattice="50.0 0.0 0.0 0.0 50.0 0.0 0.0 0.0 50.0" Properties=species:S:1:pos:R:3:forces:R:3 Energy=-6306.571362961032
C		-27.8103		32.8221		-26.9184		-1.5798214097007086		0.05286491409479554		1.0668277670860926
C		-28.7454		32.7742		-25.81		-0.09035756257619681		-0.34687245873845407		-3.4208180970830337
C		-30.1035		32.5046		-26.1506		0.5906684162873992		-0.09749160240945684		-0.23891137583732674
C		-30.5888		32.2658		-27.449		2.2297986958381557		0.6374391989177529		-1.0254241622234002
C		-29.6304		32.3556		-28.5279		-1.8608964599057223		-0.46140553833032133		2.457195592030812
C		-28.3065		32.6167		-28.2139		0.40622863688595134		0.052717744152078916		-0.9120803720917533
H		-26.7544		33.0675		-26.8073		0.3452449504620806		0.005533476717607503		0.300419207343696
H		-28.4494		32.9549		-24.8008		0.34101965101306525		0.15495303182205572		1.1094856588959354
H		-30.8321		32.4485		-25.3767		-0.8318617489898326		0.018532974103617754		1.249094193018317
H		-31.6372		32.0905		-27.6895		-0.36895350372869096		-0.1430757181047753		0.2269374400647128
H		-29.9959		32.1439		-29.519		0.06372268257998566		0.039438613590494595		-0.9253877847876821
H		-27.6861		32.6697		-29.114		0.7552075489903886		0.08736536418460444		0.11266198500569334
12
Lattice="50.0 0.0 0.0 0.0 50.0 0.0 0.0 0.0 50.0" Properties=species:S:1:pos:R:3:forces:R:3 Energy=-6306.553190152878
C		-113.673		128.198		-106.514		0.46828246785135796		-0.3213411990464302		-0.5408059849966849
C		-113.855		127.846		-107.845		0.6889791721515994		0.37538444970214513		0.4185899864770234
C		-115.135		127.886		-108.329		-1.4932351411842033		-0.6686767134571985		-0.296142948630798
C		-116.262		128.126		-107.524		1.2306727533681414		0.5035600081488306		1.8919095171425968
C		-116.052		128.492		-106.145		-1.2031687890945533		-1.0132260262585275		-0.782680300072073
C		-114.732		128.486		-105.675		-0.3906918720947966		0.7238123744074878		0.04643772193189982
H		-112.658		128.21		-106.17		0.9313245133189807		0.06892186446964042		0.7340353375317985
H		-112.995		127.549		-108.459		-0.010581117789237853		0.06250002020123896		-0.17349932423984663
H		-115.295		127.535		-109.327		-0.31049124671473166		-0.18235605458706525		-1.2325998465803176
H		-117.258		127.925		-107.882		-0.7525087134650431		0.16408996098753525		-0.43502977410676885
H		-116.961		128.581		-105.461		1.0701495808979553		0.18984382678788203		-0.6200133932406312
H		-114.447		128.8		-104.684		-0.22873160724546943		0.09748743722239882		0.9897990602058642
12
Lattice="50.0 0.0 0.0 0.0 50.0 0.0 0.0 0.0 50.0" Properties=species:S:1:pos:R:3:forces:R:3 Energy=-6306.634056839809
C		-176.673		196.699		-163.336		1.9008368499815516		-0.3322336774237705		0.5215942396687976
C		-176.89		195.345		-163.051		1.2899208937624427		0.5934954984364816		-0.5905818215342423