12
Lattice="50.0 0.0 0.0 0.0 50.0 0.0 0.0 0.0 50.0" Properties=species:S:1:pos:R:3:forces:R:3 Energy=-6306.361734332329
C		-108.363		121.894		-102.591		1.2792873254695112		0.42948200205580167		-0.5949251860386306
C		-109.525		122.006		-103.341		2.249341753514374		-0.9698497168142708		-0.1871565098045241
C		-110.708		122.066		-102.719		-3.251712685234958		0.17592557141217308		0.8513614064453475
C		-110.773		122.31		-101.345		2.004782795402875		0.64971462224248		0.6914336500362079
C		-109.552		122.473		-100.611		-1.0702018771354613		-1.3103018739461967		-0.9402310716447081
C		-108.352		122.094		-101.237		1.0332545082042235		0.9163252119244976		2.734920700555805
H		-107.4		121.77		-103.072		0.47447275857257115		-0.31222679274430143		-0.5189800962802984
H		-109.436		121.822		-104.376		-0.07274545476683808		-0.1160047790190334		-1.7988290020937678
H		-111.629		121.892		-103.308		-0.01179472988499429		0.27860031202780194		0.17781481798638993
H		-111.686		122.449		-100.809		-1.1851461275386364		0.07685222636191845		0.3760390525570656
H		-109.565		122.681		-99.5483		-0.12201529820994002		0.21974663027451388		0.5991173182573691
H		-107.397		122.069		-100.561		-1.327522865548601		-0.038263465197446764		-1.3905650285541944
12
Lattice="50.0 0.0 0.0 0.0 50.0 0.0 0.0 0.0 50.0" Properties=species:S:1:pos:R:3:forces:R:3 Energy=-6306.4930253914945
C		-103.753		115.468		-98.1461		-0.22670892041920873		0.07480753089293139		1.4638192532068597
C		-105.058		115.735		-97.7055		-2.2011427230996197		0.15081268162019895		-0.523770009974956
C		-105.304		116.18		-96.3802		-0.5261688491879996		0.3903675017248957		-0.44427067868251147
C		-104.26		116.479		-95.5149		0.6181563368775048		-1.0947767378880773		-2.2472349916160166
C		-102.965		116.254		-95.9496		1.028082785695914		-0.012337284065847906		-0.6791255222797662
C		-102.703		115.698		-97.2376		-0.2293212640355224		0.1598961832627985		0.9034547839152233
H		-103.601		114.976		-99.0904		0.2831780068707505		-0.19664079500181733		-0.8600246355715868
H		-105.982		115.597		-98.4168		1.603930335145513		0.09550763639621694		1.1252548514093397
H		-106.29		116.423		-95.9527		-0.3640714416981324		-0.3401073722032345		-0.5810422576198211
H		-104.427		116.759		-94.5321		-0.5520297243002937		1.0036460960250873		2.3943206021502266
H		-102.151		116.578		-95.2757		0.1839728156523878		-0.4400669764997229		-0.1616566689926539
H		-101.69		115.34		-97.43		0.38212259107664376		0.20889148431450844		-0.389724674522275
12
Lattice="50.0 0.0 0.0 0.0 50.0 0.0 0.0 0.0 50.0" Properties=species:S:1:pos:R:3:forces:R:3 Energy=-6306.502607055257
C		-30.7071		35.9402		-30.0847		0.9648331860904192		0.23952715503510155		-2.9705597306053417
C		-31.1154		35.7191		-28.8096		0.6494452220573325		0.04719583739852145		1.6270850727995945
C		-32.4274		35.4091		-28.4958		0.0802560069413179		0.6849326157916417		-1.2568468916848488
C		-33.3447		35.5035		-29.5384		-0.7833509980325387		-0.7103617512676504		0.7514180000985292
C		-32.9866		35.7765		-30.8382		1.0340943333280697		0.2137378594337304		-0.6332945806847133
C		-31.6527		35.9716		-31.1551		1.2598643897311637		-0.04781624458191629		1.6802557938997482
H		-29.6103		36.0072		-30.3463		-0.8072032759636819		0.2978716041040001		0.34115669080948025
H		-30.393		35.8684		-28.0078		0.387495990913861		-0.41543282610910853		0.4039153639848158
H		-32.6295		35.1449		-27.489		-0.8191032668105005		-0.25500761266787936		1.3206508725455592
H		-34.3891		35.293		-29.4079		-1.0142413548814975		-0.23235943375094023		0.5631685657788063
H		-33.7041		35.7755		-31.6298		-0.9943129916913813		0.10294851167608425		-0.7268414938399155
H		-31.2666		36.1733		-32.1345		0.04222275831743587		0.07476438778254034		-1.1001076631017153
12
Lattice="50.0 0.0 0.0 0.0 50.0 0.0 0.0 0.0 50.0" Properties=species:S:1:pos:R:3:forces:R:3 Energy=-6306.415413481012
C		-119.771		134.98		-110.959		0.8746009905024624		-0.6992801939667013		0.13298300706463684
C		-118.752		134.208		-111.564		-1.7681888576537421		-0.260369956761671		-0.6273031905010361
C		-119.14		133.155		-112.414		-1.0602668261387787		0.9048830316996237		1.1341754993801771
C		-120.505		132.919		-112.679		1.8474594636124329		-1.1910098881633258		-0.9080359240363558
C		-121.464		133.73		-112.161		0.5150363326231676		0.19893637871347186		1.6634906588809155
C		-121.103		134.62		-111.139		-0.6059092985312472		1.390757089957425		-1.046136660443735
H		-119.508		135.835		-110.337		0.05382588959776135		0.1874141857594343		0.4381418373259196
H		-117.709		134.371		-111.409		1.1473880897929583		0.44271181885950156		0.2906588370931374
H		-118.376		132.525		-112.766		1.2294897373995397		-1.2714857244215947		-0.8986950035491581
H		-120.839		132.032		-113.24		0.27236548980051173		0.11686599572085658		-0.42129375852036366
H		-122.432		133.488		-112.492		-2.116961772976026		0.04931504343599081		-0.010370133067027406
H		-121.862		135.244		-110.667		-0.3888392894511029		0.13126227058905116		0.2523848303728894
12
Lattice="50.0 0.0 0.0 0.0 50.0 0.0 0.0 0.0 50.0" Properties=species:S:1:pos:R:3:forces:R:3 Energy=-6306.530303705076
C		-60.2598		65.4418		-54.6568		0.8988066922687881		0.004087745431975865		0.5762898306086855
C		-60.9826		66.355		-55.4565		-1.4810909469628348		-0.09074538777115447		-0.4132318589923522
C		-60.3093		67.297		-56.2952		-0.24755110508102884		-0.8832457076862219		0.5316247814354406
C		-58.9193		67.4168		-56.2311		-0.14017093721933885		-0.7067094992825185		0.3077057135921044
C		-58.165		66.539		-55.4171		-0.31258900975216164		-0.4542591572020745		-0.04529394099694323
C		-58.815		65.5355		-54.6459		-1.9665982116492187		1.5795637851678606		-1.6461917628539076
H		-60.7693		64.6397		-54.0108		0.50717518482694		1.0218276517539584		-0.8915391093393591
H		-62.1469		66.2895		-55.5014		1.7892230522967307		0.05573657917201761		0.04984895871035373
H		-60.8167		67.8222		-57.1154		-0.405640317069522		0.28747231472756657		0.30568369525265543
H		-58.4626		68.12		-56.922		0.5351668359407536		0.2981325710709068		-0.1590395431245329
H		-57.0616		66.5408		-55.5167		-0.18223783526550494		0.07060382871014284		0.27920267006727867
H		-58.2434		64.768		-54.2078		1.0055065462443353		-1.1824647240924595		1.104940617062639
12
Lattice="50.0 0.0 0.0 0.0 50.0 0.0 0.0 0.0 50.0" Properties=species:S:1:pos:R:3:forces:R:3 Energy=-6306.5667588924825
C		-170.524		189.004		-157.268		-0.08786621507281547		0.18983102269433333		1.2258210303544252
C		-169.495		189.586		-156.51		0.7995028735346564		0.637838285544386		-0.03183730147579995
C		-168.13		189.328		-156.806		-0.6157390885661063		-0.6024764644865667		0.16666456081001454
C		-167.865		188.326		-157.762		-0.7300725477115632		-0.9320233391476036		-0.30294001968885814
C		-168.887		187.661		-158.484		-1.23795925961655		0.24527557597372776		0.6145561754416292
C		-170.264		188.008		-158.188		2.171948721321725		0.030497602482929206		-1.2342317771540614
H		-171.549		189.297		-156.995		-0.1438395414203283		-0.12828750427662755		-0.20382116611333995
H		-169.791		190.254		-155.679		0.24044565591448808		0.11685164896543453		-0.21078880415252907
H		-167.278		189.78		-156.256		-0.4141251116390783		-0.04678728911239862		-0.003225191756529125
H		-166.908		187.821		-157.853		0.945035023562413		0.4882343309240112		-0.14788018424310487
H		-168.622		186.838		-159.21		-0.2947613406570348		0.6573809318441047		0.5705288112647605
H		-171.079		187.624		-158.775		-0.632569221071869		-0.6563348014057305		-0.44284613328660694
12
Lattice="50.0 0.0 0.0 0.0 50.0 0.0 0.0 0.0 50.0" Properties=species:S:1:pos:R:3:forces:R:3 Energy=-6306.459002847874
C		-143.131		160.081		-132.523		2.0408591260183635		0.745724497922594		-2.907789538888018
C		-144.487		159.973		-132.644		-1.0057728096836738		-0.9526752107563161		0.1661504430296928
C		-145.083		160.079		-133.898		-0.32431550256029185		0.4016553129183105		-0.0448574191088505
C		-144.358		160.394		-135.06		0.17478646988489893		-0.10891583633453736		1.7397715347070113
C		-142.985		160.605		-134.982		0.7334818304516443		-0.2666624231209617		2.9515006059587896
C		-142.353		160.444		-133.682		-1.8314786693120686		-0.21724993487663827		-0.6286875238441089
H		-142.546		159.739		-131.714		0.5359160553905724		-0.12933471457831303		1.8559047660380317
H		-145.084		159.611		-131.801		-0.2082567303756915		0.12763115307158387		0.2627849939243845
H		-146.167		159.939		-133.944		-0.259194551258311		-0.03578852133198524		-0.2326121217657933
H		-144.954		160.502		-135.917		-0.6574416612998519		0.18768250608127057		-1.9924773415936805
H		-142.342		160.893		-135.786		0.39504927482223223		0.24452496812822305		-1.1230468908920912
H		-141.275		160.562		-133.579		0.4063671165001148		0.003408254298832117		-0.04664161040949291
12
Lattice="50.0 0.0 0.0 0.0 50.0 0.0 0.0 0.0 50.0" Properties=species:S:1:pos:R:3:forces:R:3 Energy=-6306.613424470749
C		-18.5163		20.992		-16.0572		0.5900527913558117		-0.22591424386618894		-0.07811021569756464
C		-19.1081		19.7406		-16.1954		-1.4933161309325536		-0.18166658757380721		-0.1838009631196977
C		-18.4795		18.6307		-16.8099		-0.8415731654369438		-0.35697545419108145		1.2794497677647738
C		-17.125		18.7388		-17.1249		-0.3442745132996249		1.0363983502579652		-0.5254300684168571
C		-16.5119		20.0078		-16.9688		0.4446685826017082		-0.8552046913924614		0.633366005929449
C		-17.166		21.0823		-16.3688		0.4389935923682531		0.9123491037900888		-0.6073572923876265
H		-19.0079		21.9286		-15.7874		-0.5609623536116806		-0.107773700905579		0.5315403978309688
H		-20.1496		19.6547		-15.834		-0.02808683335139861		-0.19758423558148955		-0.2737942518055366
H		-19.0864		17.674		-16.8662		0.7737372835040722		0.7395997703309978		-0.14450823392035866
H		-16.5982		17.9079		-17.5834		0.38601241299027006		-0.3596706901720559		-0.1739195453341444
H		-15.4555		20.112		-17.1969		0.5480568557558192		0.021478584106635255		-0.2548802402192039
H		-16.6679		22.0658		-16.2122		0.08669142663420475		-0.4250362048030236		-0.20255541204626462
12
Lattice="50.0 0.0 0.0 0.0 50.0 0.0 0.0 0.0 50.0" Properties=species:S:1:pos:R:3:forces:R:3 Energy=-6306.599377858269
C		-9.33875		9.43286		-7.65853		-1.2429125926256568		1.7641675495264446		-0.4718814980018599
C		-8.30778		10.4047		-7.79352		1.3204623078425748		-1.9690625625698166		0.18043101825738694
C		-6.9786		9.88646		-7.67379		-0.5413846888874371		-0.4506322048716653		0.4110342343096547
C		-6.77933		8.51063		-7.39004		0.5821184699647254		0.6900246341031618		-0.6242199236368543
C		-7.85324		7.65093		-7.207		0.4490109700869101		-0.9184571192113906		0.06615623168517923
C		-9.16037		8.10474		-7.29666		0.6265023947225854		0.6083971493343824		-0.4039233344044947
H		-10.3785		9.71287		-7.94495		0.2524217514137247		0.2405834156197773		0.41138750387864953
H		-8.45136		11.4577		-8.03903		-0.36261290631895204		0.1967398853161482		-0.1231073485500773
H		-6.04905		10.4561		-7.79442		-0.16106737215703812		0.5597803660843277		-0.11693505555071974
H		-5.75041		8.09035		-7.45263		-0.31779806467780575		0.2085059731123608		0.26070702838099574
H		-7.62657		6.58481		-7.12312		-0.09740495623423759		-0.34435714855397354		0.3497914835351877
H		-10.0239		7.46585		-7.20571		-0.5073353131293928		-0.5856899378897568		0.060559660096952135
12
Lattice="50.0 0.0 0.0 0.0 50.0 0.0 0.0 0.0 50.0" Properties=species:S:1:pos:R:3:forces:R:3 Energy=-6306.3875213294
C		-163.466		182.184		-152.869		0.24605713990082415		-0.2574636332143613		-0.3953762677173179
C		-162.083		182.206		-152.663		-0.6483308545420942		-0.6471348802137563		2.5963531032434912
C		-161.572		181.719		-151.397		1.146881685322003		0.3285634277167828		-0.9731292616908038
C		-162.307		181.156		-150.353		-3.3808926708273757		0.6987791373902406		-2.7766719699826865
C		-163.745		181.071		-150.677		0.5960790456978264		-0.7114606921641552		0.5513128493277527
C		-164.303		181.547		-151.926		0.8597215025134756		-0.5915308671187209		1.426613436989775
H		-163.813		182.604		-153.84		-0.32683060705652267		-0.3145533839596101		0.4000661140784583
H		-161.451		182.607		-153.433		0.7989451498453817		0.34219603353561173		-0.4400000249744198
H		-160.486		181.736		-151.242		0.33741943815512715		0.15900087373357452		-0.1847486203084904
H		-161.863		180.723		-149.467		0.14987669723958125		-0.08091678044373178		0.5419670437446229
H		-164.366		180.486		-149.913		0.27992278462975373		0.7856922959577066		-1.0195001349415256
H		-165.344		181.301		-152.194		-0.058849310877980274		0.2888284687804196		0.2731136808090815
12
Lattice="50.0 0.0 0.0 0.0 50.0 0.0 0.0 0.0 50.0" Properties=species:S:1:pos:R:3:forces:R:3 Energy=-6306.485740173102
C		-171.945		189.989		-158.529		-1.0926823687067686		0.49923309870442467		1.5110409559027909
C		-171.413		189.365		-159.608		1.9350956163778712		-0.14111103536495215		-1.2771429740435065
C		-170.023		189.606		-159.882		0.04801956741682247		-1.366609546543725		-1.0068887198607852
C		-169.189		190.398		-159.066		-2.1196365943982096		0.7217558004420761		-0.3592084058306784
C		-169.849		191.105		-158.049		0.22602485272250739		-0.4493958642243083		0.5644848677332648
C		-171.192		190.857		-157.747		0.9500634327826892		-0.18048403440376734		0.16818259151544337
H		-172.955		189.742		-158.208		-0.5393303260707104		0.0031895048451925307		0.08607441330693125
H		-172.062		188.684		-160.181		0.4107243135393008		-0.027432281918540528		-0.2993475715623492
H		-169.594		189.045		-160.75		-0.03091736077866497		0.3364215930333886		0.3592218269889764
H		-168.163		190.684		-159.236		0.8209792464926067		-0.41949933422929475		-0.4979998948028768
H		-169.254		191.73		-157.378		0.08969966870927984		0.3025472065538433		0.18366407758947007
H		-171.527		191.146		-156.766		-0.6980400480867234		0.7213848416836002		0.5679187816412568
12
Lattice="50.0 0.0 0.0 0.0 50.0 0.0 0.0 0.0 50.0" Properties=species:S:1:pos:R:3:forces:R:3 Energy=-6306.478675962847
C		-147.063		165.704		-138.642		0.2253014471480359		-1.2266726311305716		2.1189279983777225
C		-148.264		166.383		-138.7		-1.7609688401320744		-0.296650278698877		-0.039163865510852776
C		-149.435		165.894		-138.02		2.029706452005053		-2.008165955735234		0.42569003632700747
C		-149.289		164.638		-137.264		0.17240459995246224		2.678700856840933		-1.59737762172819
C		-148.039		164.028		-137.159		-0.6374140535292177		1.8673094595793835		-1.136621698312732
C		-146.934		164.568		-137.782		0.23205223834989588		1.2591746141855311		-1.2540284484422566
H		-146.161		166.145		-139.016		0.8011870489238441		0.34787991978586985		-0.788672255898437
H		-148.303		167.252		-139.37		-0.29007221420476864		0.3033254794689433		0.14688892114535912
H		-150.373		166.432		-138.111		-0.5117219235882969		0.10845725438165586		0.0860363609807222
H		-150.106		164.182		-136.746		-1.0917952867075358		-0.26217230005035635		0.4469159838408522
H		-147.934		163.168		-136.6		0.231578692576843		-2.368452682215377		1.6387562354685346
H		-145.95		164.155		-137.603		0.5997418392057595		-0.4027337364119		-0.047351543403603896
12
Lattice="50.0 0.0 0.0 0.0 50.0 0.0 0.0 0.0 50.0" Properties=species:S:1:pos:R:3:forces:R:3 Energy=-6306.477439615184
C		-18.0099		19.2351		-16.7963		0.06035037230280235		0.45533490674841687		-2.16316547310174
C		-18.4329		19.202		-15.4971		1.9405206439657823		-1.0348222640440363		0.5961194120168454
C		-17.4601		18.917		-14.5208		1.244570337074748		0.4943880605588263		-0.8376650886911496
C		-16.0849		18.7897		-14.9454		-1.6590133913259217		-0.24294250557855102		0.6244926148339983
C		-15.7275		18.8527		-16.3149		0.5413479735348516		0.7195344701885916		2.151770344064003
C		-16.6862		19.1625		-17.238		-0.15515368070971478		-0.17475561664743214		-1.3982861540743852
H		-18.7289		19.3228		-17.5915		-0.9141205938413075		0.35448235833757696		-0.5646673132108184
H		-19.4684		19.2602		-15.3298		-1.822651455228693		0.20382255450902598		0.7340064383327047
H		-17.7525		18.8912		-13.4702		0.15613877315996716		-0.13179119792335692		0.4032909458805503
H		-15.3471		18.6395		-14.1488		0.31245166142337194		-0.10728205456654562		-0.06926865485876721
H		-14.6769		18.8867		-16.5509		0.8507157510292922		-0.3129931357409142		-0.3463504219605159
H		-16.3818		19.3183		-18.3187		-0.5551564428072413		-0.2229755758416015		0.8697233507692743
12
Lattice="50.0 0.0 0.0 0.0 50.0 0.0 0.0 0.0 50.0" Properties=species:S:1:pos:R:3:forces:R:3 Energy=-6306.69685671517
C		-27.5813		32.7393		-26.8691		1.254313069557888		1.1776258051722919		0.4008830563845166
C		-28.5668		33.2961		-26.0393		-0.4149418482568869		0.04899962050495527		-0.4943669775132239
C		-29.8471		32.7372		-26.0906		-1.0972233996191942		-0.18982994283102203		-0.1854511999476718
C		-30.1619		31.6068		-26.8868		0.8733620273299209		0.14992266856340677		0.23142139248782478
C		-29.1027		31.0055		-27.6318		-0.6317494505523762		-0.057334468340423		1.0223226405270507
C		-27.807		31.5825		-27.5935		-0.7991062037449583		-0.6486872608568981		-0.885122612965452
H		-26.5933		33.2666		-26.9943		-0.567932922708429		-0.4482643217402135		0.32724491461363925
H		-28.413		34.2153		-25.4558		0.21777454275769867		-0.022365563261743212		0.005815218197741799
H		-30.7104		33.2092		-25.5799		0.36572625508966405		0.013947771639552237		0.22341652002706439
H		-31.2147		31.2298		-26.8241		0.6931460047156152		-0.051990173390549406		-0.3637952538007422
H		-29.3055		30.0262		-28.0961		0.1825450820886118		0.17056739250543942		-0.3798308125976101
H		-26.9977		31.1842		-28.2281		-0.0759132080796165		-0.14259152796479638		0.0974631145868625
12
Lattice="50.0 0.0 0.0 0.0 50.0 0.0 0.0 0.0 50.0" Properties=species:S:1:pos:R:3:forces:R:3 Energy=-6306.512417345062
C		-62.5268		68.354		-57.5861		0.8787280738122086		-0.6115106009492193		0.5127781841729728
C		-63.687		69.0709		-57.8978		-0.943941944781027		-2.74321214817057		0.607251311516928
C		-63.5803		70.3007		-58.4679		-1.2989922083762429		1.6232823598597492		-0.8848787695453393
C		-62.3338		70.8872		-58.6416		-0.7931255607723321		0.7277905394243942		-0.20500845011312474
C		-61.2099		70.1584		-58.3011		0.8130916163342202		1.225066154477738		-0.48016944891637797
C		-61.2404		68.8959		-57.7698		-2.981122850672724		0.3471520919140281		-0.3963786894026141
H		-62.5257		67.3215		-57.2228		-0.5457407546412492		-0.23709854244790265		0.20692644162024815
H		-64.6804		68.54		-57.7717		0.761907175240116		0.6127674589994917		-0.11276220660539799
H		-64.5005		70.7883		-58.8678		0.35525728881861796		0.05996131297834605		0.3829745003851644
H		-62.3172		71.9242		-59.0339		0.41494745326169336		-0.340814579828036		-0.07173485697361315
H		-60.2818		70.6151		-58.5574		1.3947055330222387		0.5302424021307407		-0.045885448981244165
H		-60.3833		68.3299		-57.6036		1.9442861273324177		-1.19362644838876		0.48688748426446077
12
Lattice="50.0 0.0 0.0 0.0 50.0 0.0 0.0 0.0 50.0" Properties=species:S:1:pos:R:3:forces:R:3 Energy=-6306.681889409636
C		-32.6164		37.3245		-31.7651		-0.235247708154332		0.5080076051737942		-0.5824451543274364
C		-32.934		38.6629		-32.041		0.6701072238123464		-0.15301760823576357		0.6399510124019874
C		-34.1936		39.1756		-31.82		-1.0424000762761938		-1.236644500323965		0.44643739870567967
C		-35.2217		38.3348		-31.3436		0.2212402355002815		0.5616458042436326		-0.5448504330520825
C		-34.9383		36.9887		-31.1301		-1.3120203992730972		-0.8721179219511348		0.13388155618379485
C		-33.6676		36.4867		-31.3875		1.156899165884785		-0.38320183732323226		0.1629537905178205
H		-31.5928		36.9371		-31.9178		-0.1797794493041506		0.031808710809080716		0.01736811012305885
H		-32.1899		39.3873		-32.302		1.0492124711088624		0.48403232566928334		-0.5307143023977953
H		-34.3981		40.1995		-32.0232		-0.2514829902417349		1.3380255646926111		-0.248803540833931
H		-36.2393		38.7407		-31.2686		-0.1067025793448567		-0.07893481989092722		0.30321281373012704
H		-35.7702		36.3003		-30.8219		0.5498294770924116		0.3393987247606846		-0.12875745050530926
H		-33.3624		35.4425		-31.3047		-0.5196554222263842		-0.5390020476240638		0.3317662508761485
12
Lattice="50.0 0.0 0.0 0.0 50.0 0.0 0.0 0.0 50.0" Properties=species:S:1:pos:R:3:forces:R:3 Energy=-6306.538824497321
C		-177.892		196.375		-165.242		-1.9511261872346817		0.29801322046397277		0.3849335781201811
C		-178.5		197.618		-164.887		-0.37360246955018783		0.13786352643332203		-0.2966075983870479
C		-177.743		198.756		-164.533		0.5922512902135706		-1.4746249825648559		-0.24526066357561882
C		-176.336		198.588		-164.632		-1.2682718969408657		1.7106746692050747		-0.16637999111644577
C		-175.748		197.386		-164.923		-0.6419074161897569		-1.093108811870622		0.7476942714465992
C		-176.532		196.223		-165.078		0.6943233128352857		0.34322005248713466		-0.8062004429018862
H		-178.579		195.546		-165.591		0.7163316984512882		0.5129400608255485		0.45845458043280957
H		-179.602		197.694		-164.952		0.10832494541498576		-0.02051292919598697		0.10562569851314062
H		-178.174		199.696		-164.161		-0.15098581970445013		0.022848982070785468		-0.26946194304457394
H		-175.736		199.495		-164.605		0.5006698311291284		0.31780073862505287		0.43104214743037267
H		-174.688		197.355		-164.837		1.4272570869453947		-0.33857530327475827		-0.23901715101977536
H		-176.077		195.247		-165.221		0.3467356760523512		-0.4165391717826054		-0.10482243447569259
12
Lattice="50.0 0.0 0.0 0.0 50.0 0.0 0.0 0.0 50.0" Properties=species:S:1:pos:R:3:forces:R:3 Energy=-6306.6151066586735
C		-20.9223		23.6292		-18.1985		1.6349037459722429		0.10823480253952028		-0.5097873741770664
C		-22.1703		23.3261		-18.7402		0.05610774361874317		-0.18929006259741551		0.2703019224346075
C		-22.2725		23.1061		-20.135		-0.34966231131432673		0.7435239421823372		0.7489452159596904
C		-21.1197		23.2644		-20.9193		-1.9956237033284818		-1.3375131952624126		-1.3039613279585203
C		-19.8883		23.5223		-20.3937		0.7493441997421983		1.1159292032746884		-0.1936954935311745
C		-19.7841		23.7837		-19.05		0.03744678000170066		0.2055836058815683		2.0382971760232453
H		-20.6963		23.7196		-17.126		-0.5376321638805379		0.20277683544715133		0.144486996608569
H		-23.0055		23.2896		-18.0146		-0.18123942450107944		-0.19910252339723059		-0.4864320904794508
H		-23.2792		22.9663		-20.5678		0.2464474333547791		-0.2003651921405592		-0.15548998099810288
H		-21.1983		23.0855		-22.0025		-0.099406097216334		0.11308899381223379		-0.10748630299857578
H		-19.0909		23.7459		-21.0931		0.7264168504482473		-0.15946619197663625		-0.20193536481730695
H		-18.8397		24.1664		-18.5927		-0.2871030528971515		-0.4034002691853077		-0.2432433246438523
12
Lattice="50.0 0.0 0.0 0.0 50.0 0.0 0.0 0.0 50.0" Properties=species:S:1:pos:R:3:forces:R:3 Energy=-6306.3675452522175
C		-143.389		159.693		-133.306		1.4965438937922049		-5.12677962573268e-05		0.14247279442261165
C		-144.771		159.618		-133.462		-0.585016206027607		0.9129222540980971		0.8425251935010443
C		-145.52		160.616		-134.158		4.356212769488635		-0.1909047667802403		-0.25264615729423323
C		-144.714		161.599		-134.818		-0.8532979613170134		-1.2911292608078297		0.3248586738058948
C		-143.319		161.542		-134.759		0.3225935319552075		0.9246333717095565		-1.6166786871785437
C		-142.606		160.607		-134.025		-0.2933305731915746		0.3856064872293319		0.2233975967080848
H		-142.808		159.071		-132.605		-0.4850480142466903		-0.500319955416255		-0.011559268261060188
H		-145.227		158.878		-132.808		-0.7072925740485786		-0.46031950437149		-0.0913773134965369
H		-146.52		160.468		-134.395		-2.539417001620827		-0.0015448215999624996		-0.15969738556938745
H		-145.151		162.295		-135.528		-0.400753575631281		0.45744794213839285		-0.13963424515360393
H		-142.794		162.177		-135.51		0.035053082994901695		0.11578618383158114		0.5926201406674863
H		-141.498		160.678		-134.005		-0.3462472693032519		-0.3521267136569871		0.14571865784824353
12
Lattice="50.0 0.0 0.0 0.0 50.0 0.0 0.0 0.0 50.0" Properties=species:S:1:pos:R:3:forces:R:3 Energy=-6306.640933802031
C		-2.7479		2.78769		-3.27308		0.3857229582007691		-0.26009454019521744		-0.571863882272011
C		-1.36853		2.91548		-3.04467		0.9028765942450955		-0.1486155197360635		-0.9344523116892395
C		-0.808504		2.52707		-1.80408		-0.10053208611768474		0.5975230286333348		-1.5311807666136794
C		-1.63843		2.06136		-0.814947		1.5865820225164955		-0.35629915122580924		1.598946457431314
C		-2.98639		1.9932		-0.998888		-1.346572631379788		-0.2691864236339955		0.3947412052461263
C		-3.53479		2.33954		-2.228		-0.6049542365654625		-0.16121515916450407		0.09945983327158868
H		-3.22594		2.84748		-4.27985		0.46222037233181934		0.4407408112059976		0.3652807343406435
H		-0.712045		3.17592		-3.91898		-0.25616157517120003		0.028868860077057024		0.668277678252628
H		0.255384		2.52432		-1.60672		0.6994762662908026		0.198682559413245		-0.19845337128092916
H		-1.13471		1.71645		0.115924		-0.47894971759519067		0.107408964216659		-0.10306565113433318
H		-3.59486		1.6187		-0.174166		-0.4301491004718962		-0.112979619085414		0.10784939418149754
H		-4.58483		2.18692		-2.43103		-0.8195588148616978		-0.06483386192735233		0.10446068026639438
12
Lattice="50.0 0.0 0.0 0.0 50.0 0.0 0.0 0.0 50.0" Properties=species:S:1:pos:R:3:forces:R:3 Energy=-6306.466558775941
C		-169.92		188.139		-157.165		1.7078749950152752		-0.155760718156874		-0.8851141797472112
C		-168.921		188.932		-157.81		-0.7621493731542304		0.35845065031849394		0.664475788065782
C		-167.589		188.774		-157.4		-0.48368388977415827		0.2575047194422545		-1.256484520410801
C		-167.181		187.702		-156.628		0.783606257150514		1.0691312697953637		-0.0031291867659449437
C		-168.168		186.953		-156.067		-0.761549020575189		-2.6875890060683054		1.6620556233842725
C		-169.532		187.111		-156.303		-0.25783484908314924		0.5570152989425533		-0.45779524674814415
H		-170.931		188.102		-157.47		-1.6699922073461066		0.5752457056307466		-0.5877425523563604
H		-169.148		189.7		-158.598		-0.11746650256608532		-0.43579724838875533		0.647143879074684
H		-166.846		189.43		-157.814		0.707805406277339		0.5949976911466776		-0.5000484469265472
H		-166.102		187.544		-156.5		-0.019376450193897523		-0.2170581820057821		0.3549939564368389
H		-167.939		186.096		-155.42		0.4429426524978156		-0.16083335035085244		0.09793810017766383
H		-170.307		186.394		-155.958		0.42982287890774723		0.244693221116542		0.26370683723782995
12
Lattice="50.0 0.0 0.0 0.0 50.0 0.0 0.0 0.0 50.0" Properties=species:S:1:pos:R:3:forces:R:3 Energy=-6306.5600673779345
C		-140.705		157.571		-129.759		-0.9349476089947065		-0.704765848166235		-0.1770436927379698
C		-141.908		157.045		-130.22		0.09483899531824903		-1.3792311431928292		-1.8524449354105674
C		-141.901		156.303		-131.476		0.47494208773650354		1.6995374732325605		1.1153779587652817
C		-140.725		156.25		-132.259		-0.49574786557811296		-0.2775296018435792		-0.5499704249655724
C		-139.531		156.845		-131.751		-0.20272767595545427		-1.2981524860965215		-1.8164881610902632
C		-139.545		157.381		-130.487		0.6932397471354518		0.5435688924118366		0.12636267363519899
H		-140.699		158.09		-128.828		0.19283509958235043		0.5719724856678942		1.1869185946090413
H		-142.834		157.102		-129.638		-0.15779482068099746		0.19236561615223066		0.05540017603950464
H		-142.861		155.996		-131.891		-0.2465394274244926		-0.5111289243641851		-0.07285678353203076
H		-140.826		155.722		-133.275		0.5106411346798352		0.7747083377312771		1.1396865046564961
H		-138.582		156.861		-132.356		-0.6450494584713131		-0.22676327353921272		0.423132765739572
H		-138.591		157.663		-130.076		0.7163097412306244		0.6154184720067637		0.4219253242913089
12
Lattice="50.0 0.0 0.0 0.0 50.0 0.0 0.0 0.0 50.0" Properties=species:S:1:pos:R:3:forces:R:3 Energy=-6306.5022090394095
C		-58.8085		64.017		-54.4165		-0.8928776256247936		-0.25687690748186764		0.4788553581106047
C		-58.9611		64.581		-53.1282		0.9770599641440737		-0.19448543925444936		0.06234652534484165
C		-57.7433		64.9162		-52.388		-1.7613156305212014		-0.8321771204988055		-1.939072495843216
C		-56.4798		64.6135		-52.9352		-0.6059181945480502		-0.8035747295493368		-0.9746087772714618
C		-56.3573		63.9543		-54.2353		-0.6396203685404682		0.21705658792184634		1.9264325929398813
C		-57.5667		63.6607		-54.9235		1.835661442715442		0.3705645055230197		-0.5871137633767871
H		-59.6908		63.7136		-55.0259		0.13885458384281799		0.2692640709482869		0.3727746257668913
H		-60.0248		64.5989		-52.7544		0.9680284502066058		0.5430672701926889		0.16643614400863535
H		-57.8249		65.3742		-51.4138		-0.003749542527277331		0.2484338162049539		0.7179947907948735
H		-55.6577		64.7962		-52.2309		0.542391018649479		0.00994404985761095		-0.4251205884074952
H		-55.3687		63.5361		-54.55		-0.5118725388091974		0.47483250732143395		-0.07858473848980396
H		-57.5006		63.2006		-55.9312		-0.04664150756536801		-0.04604866260744352		0.2796603264230362
12
Lattice="50.0 0.0 0.0 0.0 50.0 0.0 0.0 0.0 50.0" Properties=species:S:1:pos:R:3:forces:R:3 Energy=-6306.574437034627
C		-145.872		163.05		-136.705		-1.4722816277571904		1.3268953106985266		-0.6153850990882371
C		-147.21		162.55		-136.662		1.7235387723006683		-0.32807553518830784		-0.011182241699215936
C		-148.336		163.35		-136.771		0.39288312044175094		1.7477144950045884		0.060879351059170576
C		-148.13		164.736		-136.953		1.8449602485334973		0.1324952173802868		-0.351526515344133
C		-146.787		165.27		-137.055		-2.02963950047975		-1.7599957290223718		0.820901239223878
C		-145.673		164.46		-136.862		-1.0323864523680952		-1.5559944314242882		-0.21236859275495396
H		-145.072		162.337		-136.865		0.6358285056557988		-0.3053540284103227		0.4930265071894166
H		-147.281		161.471		-136.577		-0.3414678457093328		-0.6242008460516874		0.036194549937048286
H		-149.351		162.98		-136.733		-0.5470792195046214		-0.47934217077576824		0.06677021111076847
H		-148.936		165.453		-137.084		-0.5806350463073218		0.10165653235716215		-0.03271543603616742
H		-146.678		166.302		-137.267		0.22145980770692023		1.5644401452263865		-0.19129053509270014
H		-144.711		164.923		-136.934		1.1848192374876756		0.17976098878373298		-0.06330343850487433
12
Lattice="50.0 0.0 0.0 0.0 50.0 0.0 0.0 0.0 50.0" Properties=species:S:1:pos:R:3:forces:R:3 Energy=-6306.636407957312
C		-71.5615		81.5719		-68.0488		-0.3171329717221465		-0.33256977202390875		2.101783574226298
C		-72.1423		81.113		-66.7925		1.0265734967411009		-0.44955990060350676		-0.684536100268131