9
Lattice="50.0 0.0 0.0 0.0 50.0 0.0 0.0 0.0 50.0" Properties=species:S:1:pos:R:3:forces:R:3 Energy=-4209.42403856733
C		0.15198012		-0.41590037		-0.34619131		4.037296480640907		4.566961361588332		-1.3217449283461318
C		-1.2419644		0.06930179		-0.38408848		0.14491883908897926		-3.677660243250689		-2.504444496997776
O		0.98051481		0.28028011		0.69600492		-0.5756270516458363		0.2842696458343882		-0.7465784641136124
H		0.18964828		-1.42110556		-0.08277124		0.27355688756529206		-2.5456690502390362		0.5425878623045173
H		0.78625704		-0.22228606		-1.36553667		-1.5482020863476118		-0.751253860875206		1.568894324275343
H		-1.363531		1.07093309		-0.67315691		-0.5257929024894666		1.9505750455694		-0.31126160063221514
H		-1.69604519		-0.68462646		-1.14947925		0.01877656041341811		1.3995370985874762		0.5385089614672819
H		-1.64326577		-0.29603059		0.51326403		-1.3473391286425882		0.23747783158049446		2.1167254371770303
H		1.15022438		1.23272541		0.41181657		-0.47758759858309396		-1.4642378287951596		0.11731300770968801
9
Lattice="50.0 0.0 0.0 0.0 50.0 0.0 0.0 0.0 50.0" Properties=species:S:1:pos:R:3:forces:R:3 Energy=-4209.697612005162
C		0.27901726		-0.08918328		-0.40946409		-2.874908678076966		-0.46281938793723715		-1.4410308463256343
C		-0.59433689		1.14763942		-0.28724652		2.702044879106873		0.05651716607992756		1.729785575868508
O		0.31879344		-0.96688774		0.62729749		0.8357843267572362		-1.4754112773216972		2.012970678983876
H		0.01446419		-0.54709223		-1.40816317		-0.03482903706883032		-0.2916837816417843		0.15138845445339183
H		1.28316799		0.15802697		-0.50799114		2.5880972911180007		1.1844029244701235		-0.47284108510913964
H		-0.189755		1.82899288		-0.9982432		0.044264059930301566		1.088655249886415		-1.4661949010697406
H		-1.63135036		1.00704687		-0.39801617		-1.9531280995477145		-0.27706844878757547		-0.11617015237185545
H		-0.30199249		1.65744445		0.6613399		-0.6175256967036835		-0.16794810691069573		0.1837882618702739
H		-0.47847233		-1.37081132		0.99581523		-0.6897990969372796		0.3453556621625239		-0.5816960377217426
9
Lattice="50.0 0.0 0.0 0.0 50.0 0.0 0.0 0.0 50.0" Properties=species:S:1:pos:R:3:forces:R:3 Energy=-4209.391175005165
C		-0.09037874		0.26535083		-0.40612183		-1.0024280102098981		-1.8250865984178224		-0.2895246720838579
C		-1.28384378		-0.1420845		0.57843991		2.4968667361876813		-1.5457343929929546		-3.5285493233650334
O		1.25823563		-0.07535365		-0.13524931		-0.5755805661013863		1.2020384807399571		0.5629404060877393
H		-0.4738207		-0.0339202		-1.4767987		0.7709993672112688		0.5524338502890462		1.2826009117513826
H		-0.14743724		1.29963386		-0.24172128		0.4349848826462546		2.498704509277391		-0.6073548755506916
H		-1.12821547		0.14855678		1.55157073		0.9079726234774862		0.5116551263291813		3.140710450138792
H		-2.06976921		0.49493942		0.23353445		-1.5504056759895526		0.013628594897958228		-0.7059060809788831
H		-1.30362645		-1.22830202		0.41092504		-1.1837588117159417		-0.2788494004982839		0.5391131707010067
H		1.52479998		-0.95514416		-0.38400558		-0.2986504940838494		-1.1287901696244729		-0.39402998670045425
9
Lattice="50.0 0.0 0.0 0.0 50.0 0.0 0.0 0.0 50.0" Properties=species:S:1:pos:R:3:forces:R:3 Energy=-4209.536923647832
C		0.08435829		-0.21117438		0.50826919		0.4783090501191926		-0.37276701530164946		0.5060687877313809
C		0.76804765		1.05532636		0.0416416		2.626481083941568		1.1236615388044922		2.0961954358563117
O		-0.81161845		-0.81804124		-0.46410257		0.5240628586205784		-0.1070620195613449		0.9668172035257216
H		0.96264005		-0.82614015		1.00419952		-1.456821430417016		-0.15779471783687254		-1.1124014955247974
H		-0.54649019		0.05512203		1.40181234		-0.05434468678576553		-0.295198839564314		-0.5225720301861829
H		0.27890231		1.42445536		-0.8035384		-1.1978106101878194		1.1216714021437588		-1.9769730241239283
H		0.76263204		1.90097288		0.8352386		-0.2913473270872089		-1.013180620577389		-0.8269322243956376
H		1.90034813		1.0230518		-0.20500666		-1.3364515867832425		-0.5149028923711237		0.08255956107265136
H		-0.63324807		-0.65288227		-1.41862017		0.7079225971576504		0.21557316426444276		0.7872377860444808
9
Lattice="50.0 0.0 0.0 0.0 50.0 0.0 0.0 0.0 50.0" Properties=species:S:1:pos:R:3:forces:R:3 Energy=-4209.698242873144
C		-0.33235339		-0.45313668		-0.17602495		1.8830553578985005		2.3097105349155314		-0.9327099779474272
C		-0.91731869		0.71438176		0.67921312		-1.8609937504478675		-1.0465583727778436		-1.3931767036836964
O		1.14950668		-0.30093984		-0.43459287		-1.716590160424584		-0.3338628826282047		0.43640516001097607
H		-0.39949722		-1.45865667		0.25644243		-0.33033039262650626		-0.18533323773642374		0.12516752205986018
H		-0.885751		-0.3226669		-1.16054209		0.2750472532011256		-0.8474876796372662		0.517473327006545
H		-1.92332405		0.33402672		1.12614404		0.627622470086755		0.8420339585385105		-1.2358415448188915
H		-0.45550412		0.92373339		1.60789338		1.6662852422865335		0.42638006898295233		1.2991185523836695
H		-0.97904599		1.6635377		0.01508788		-0.279389589264265		-1.1263121404352645		1.1084346947836914
H		1.286794		0.52243471		-0.94260788		-0.26470637928762925		-0.038570146377866724		0.07512897020527298
9
Lattice="50.0 0.0 0.0 0.0 50.0 0.0 0.0 0.0 50.0" Properties=species:S:1:pos:R:3:forces:R:3 Energy=-4209.817727719762
C		0.11478995		0.52589004		-0.17482334		1.5055376639358387		-0.11459982542892039		1.8860711590167547
C		-1.31195548		0.06111521		0.06932059		-0.6859652222275929		0.4308574908041339		0.2997405389635513
O		1.09865182		-0.50617492		0.14506866		-0.08896258486619808		-0.6416425925681669		-1.8058055361497598
H		0.23369673		0.89573207		-1.20822927		0.1483013309345266		0.22614595167956456		-0.21501076116748552
H		0.42226077		1.36815442		0.60044603		-0.7393093385223103		-1.0151222148111745		-1.5095962016363458
H		-1.5414747		0.07944391		1.21290881		-0.04695996439808779		-0.3054482850507838		-1.7722442071863778
H		-1.99189785		0.7246655		-0.53983749		0.050377577512284846		0.10310540038860291		0.8585240883673891
H		-1.52719535		-0.91846059		-0.43646057		0.3593215343680567		0.017610873679860094		0.6527813312025547
H		1.22984719		-1.11114114		-0.67437547		-0.5023409967365174		1.2990931498848217		1.605539588589719
9
Lattice="50.0 0.0 0.0 0.0 50.0 0.0 0.0 0.0 50.0" Properties=species:S:1:pos:R:3:forces:R:3 Energy=-4209.425815950605
C		-0.29794842		-0.37680996		0.0686148		3.210812810895974		-4.512210954729878		2.2221172681501726
C		-0.86428106		0.87984728		0.18657045		-3.805950884273125		3.565889042632724		-0.31815498521323415
O		1.09661908		-0.50070496		-0.20263698		0.411497547092281		1.9826219947937866		-2.240176027993926
H		-0.39179736		-0.91333384		1.09188384		-0.0645616335287703		0.40695451071942024		-1.0559439276152431
H		-0.84222557		-0.9896351		-0.61677027		-0.9799335832596688		-0.922708078269566		-1.1234902004924265
H		-1.91863		0.67132153		0.44984948		-0.5153525783072023		0.024783685748203384		-0.13353646272272873
H		-0.6470354		1.54681118		0.97547874		1.3870758873511368		0.9197490985303127		1.618207053718524
H		-0.98247177		1.53362602		-0.6850656		0.35186836921526504		0.007000908113590789		-0.8384733406686548
H		1.22336221		0.10334681		-1.03965486		0.00454401339204734		-1.472080207538595		1.8694506228375165
9
Lattice="50.0 0.0 0.0 0.0 50.0 0.0 0.0 0.0 50.0" Properties=species:S:1:pos:R:3:forces:R:3 Energy=-4209.73669692865
C		-0.25744302		0.1837802		0.48237488		0.19773083988151924		-1.3107107307646941		-0.9688352109443
C		0.07147133		1.17093051		-0.66759809		-1.3785267637814624		-0.0034831248217515433		0.45620327111691983
O		0.20643058		-1.21558587		0.21700906		-0.2866908022225326		1.1123033308075905		0.17552262813085667
H		0.30714743		0.44405907		1.35588148		0.7030584814268852		0.20406428962457834		1.1223772213728742
H		-1.33886389		0.23309897		0.7938381		0.31356217228392685		-0.08035334890552563		-0.3663161175679667
H		-0.01627413		2.2847997		-0.54292949		-0.148413431030656		-0.49774962362495867		0.8324506344489487
H		1.05071212		1.03748385		-1.09940074		0.8471264396485925		-0.5737171334025167		-0.35749677106014544
H		-0.72255312		0.94981562		-1.37572085		-0.13250365059852773		-0.07335922850417753		-1.2079760834463174
H		-0.34185089		-1.7981684		-0.36919695		-0.11534323418568285		1.2230055695914555		0.3140704279491298
9
Lattice="50.0 0.0 0.0 0.0 50.0 0.0 0.0 0.0 50.0" Properties=species:S:1:pos:R:3:forces:R:3 Energy=-4209.332925076109
C		0.49588527		-0.31571304		-0.18425082		-1.7580468328557193		-2.263620323281633		0.7365197944788122
C		0.24705802		1.09186016		-0.64234332		-1.1314539353032311		-1.3462061463407449		-1.2491002093996229
O		-0.68073531		-0.72365928		0.71188905		1.7310746241298707		1.4436700322585438		1.127957697855556
H		0.69636651		-1.15101245		-0.97844581		-1.5769606975227872		1.2691087910071526		0.28216560930534007
H		1.38559276		-0.62040642		0.32502476		1.5399880803588886		0.8103141050533342		1.401839881387873
H		0.55461981		1.86578634		0.04490989		-0.15299374839878926		0.6060118341237618		0.8420338556943857
H		0.75045842		1.29394532		-1.58367589		0.4590377580429944		0.21713125275651593		-0.722416008301803
H		-0.87037662		1.03745202		-0.88387088		0.9731883456405528		0.7315290776303083		0.40361217950464207
H		-0.56506597		-0.18899275		1.62574979		-0.08383359409178028		-1.4679386232072391		-2.822612749103121
9
Lattice="50.0 0.0 0.0 0.0 50.0 0.0 0.0 0.0 50.0" Properties=species:S:1:pos:R:3:forces:R:3 Energy=-4209.616957450259
C		0.1683902		-0.38812987		-0.39164199		-0.835142939372364		0.4458252704743384		-0.6142658978991291
C		0.47535084		1.157209		-0.51219724		-1.3998463508710182		-2.714297111081438		2.513295056697501
O		-0.52561358		-0.74421042		0.80996371		-1.2807591277408024		1.3751652521373923		-0.011593772464960555
H		-0.40768376		-0.60509556		-1.32206033		-0.44814363415965597		-0.26613802092815103		0.046748362611128025
H		0.92496044		-1.17436911		-0.42712322		1.206969393729838		0.28937009736414926		0.011925084813291506
H		0.68592798		1.42660372		0.51663346		-0.032860651940511146		0.5349103426932796		0.9673972443900973
H		1.28644477		1.5678362		-1.01516308		1.9274656621743946		0.4480150275814818		-2.0101470421129775
H		-0.47861798		1.57639983		-0.78879385		-0.6377317904530632		0.8501536564647098		-0.3939978479114264
H		-1.33963786		-0.14416456		0.94988333		1.5000493872111198		-0.9630045147057623		-0.509361188123525
9
Lattice="50.0 0.0 0.0 0.0 50.0 0.0 0.0 0.0 50.0" Properties=species:S:1:pos:R:3:forces:R:3 Energy=-4209.39312084383
C		0.37033095		-0.1915096		-0.28756514		-2.4001848769955405		-2.292409170629526		0.38143322690751064
C		-1.19348885		-0.15384765		-0.71110528		3.7435114392614466		-3.3903609637632486		-0.2242120193330833
O		0.77805464		0.40873521		0.90575073		-0.30566631459554916		-0.46876043592178107		0.7725729851662002
H		0.60803869		-1.29087779		-0.26694071		-0.4483227372031507		-0.2681158677159601		0.527418199617155
H		0.96991665		-0.09186113		-1.17542104		0.9704265695107748		1.9471900854648552		-0.7476729312906846
H		-1.67912421		0.74192109		-0.76047926		-1.3992272292391847		3.3070759916556907		-0.07054042530714856
H		-1.11596553		-0.60940166		-1.71518558		-0.3507282392467421		0.2252896714957361		-0.4214749698684186
H		-1.79006145		-0.89778588		-0.18426745		-0.3121153097129214		-0.17737361669061472		0.8086289012228978
H		0.4646816		-0.2261914		1.62522454		0.5023066982208669		1.1174642546827867		-1.0261529671144285
9
Lattice="50.0 0.0 0.0 0.0 50.0 0.0 0.0 0.0 50.0" Properties=species:S:1:pos:R:3:forces:R:3 Energy=-4209.54386900184
C		0.51940579		0.31287077		0.10193956		-3.6543803957186802		-2.0227627252249007		1.3143906478194212
C		-0.75343004		0.96793082		-0.56756976		1.6049854644448152		1.4867074703112906		-1.037157648432023
O		0.26813994		-1.15159697		0.45777594		2.1043289663173086		2.3159760046920392		0.9926658916092165
H		1.45169973		0.33509432		-0.41641652		1.0044677177388281		0.2684734053161377		-1.2241975329989223
H		0.66391955		0.80042624		1.08317132		0.20164945815011462		0.038545618054080626		0.13795264086753864
H		-1.05097202		0.31632895		-1.41324234		-0.38884797977965607		-0.1183112642079262		0.11592908574311488
H		-1.61178212		1.1962699		0.13562049		0.7058444259260119		-0.4417270349416238		-0.42905216503582677
H		-0.48361469		1.98887394		-1.1434358		-0.36443993219761084		-1.7068690766297325		1.3097018813215924
H		-0.43786971		-1.62091614		0.03634761		-1.2136077248811314		0.17996760263063563		-1.1802328008941114
9
Lattice="50.0 0.0 0.0 0.0 50.0 0.0 0.0 0.0 50.0" Properties=species:S:1:pos:R:3:forces:R:3 Energy=-4209.564133970391
C		0.13432956		0.61232286		0.05657875		-1.296005512145332		-4.73930970580448		-0.2748194534644958
C		-0.85429785		-0.07055987		-1.03674484		2.4093578530267936		2.0631841686949		1.2300101800935423
O		0.68150606		-0.48796081		0.84293952		0.06557331118530654		-0.029240333056157246		0.9424497793730078
H		0.97940984		1.0558281		-0.36468049		1.9467457474232708		1.02155655464075		-1.4188546190978124
H		-0.32271599		1.36544303		0.63486627		-1.330613948566275		1.3222097837906315		1.197105459445516
H		-1.24494658		0.76556541		-1.60832135		-0.3604666008545744		0.41664510123124143		-0.8926250404540657
H		-0.27979126		-0.78557437		-1.681619		-0.5602171450827325		0.12646212390396697		0.5153044986788163
H		-1.66905466		-0.41908513		-0.43277766		-0.8710794019780024		-1.1328418681906751		0.27301469333887557
H		0.29751909		-0.69379144		1.75198877		-0.0032943544305171937		0.9513341747898216		-1.5715854979133843
9
Lattice="50.0 0.0 0.0 0.0 50.0 0.0 0.0 0.0 50.0" Properties=species:S:1:pos:R:3:forces:R:3 Energy=-4209.437657023955
C		0.31188592		0.45631703		-0.18460504		-1.2160620484995528		1.067062200268778		3.890397635037496
C		-0.99368721		0.08264241		-0.81307808		-1.2997869363513253		-2.66789013954288		-1.278761689147202
O		0.59962015		-0.49648182		0.89873338		-3.466393985248361		-0.1607919555905845		-2.5343051858152656
H		1.12874538		0.48179186		-0.83653476		1.7084828552154336		-0.27516603816537283		-2.017554853006693
H		0.28496015		1.59255435		0.15747937		-0.20147585726730147		-1.5774622683198722		0.09154489799804404
H		-1.60286011		0.92896687		-1.19472643		0.45217795206875183		-0.09623602991074556		-0.49135091928465735
H		-0.78089206		-0.76749829		-1.57650722		-0.2954014939124084		1.5010166362057038		0.132625109510022
H		-1.78443823		-0.54660232		-0.25701115		1.22173770721982		1.0473170024650897		0.6247431945442912
H		1.35990895		-0.23216244		1.3298549		3.096721806774944		1.1621505925898836		1.5826618101639642
9
Lattice="50.0 0.0 0.0 0.0 50.0 0.0 0.0 0.0 50.0" Properties=species:S:1:pos:R:3:forces:R:3 Energy=-4209.681730254169
C		-0.46236228		0.01856913		0.27618927		0.10742511074426664		-1.7119369779939666		3.1647330893628145
C		-0.22712684		1.0291025		-0.79748293		-0.5588860335742901		0.8055409549510334		-0.23343698306946814
O		0.61975395		-0.96918927		0.51245938		-2.006767789857364		1.5296052460424374		1.5405780971033791
H		-0.57766607		0.46109059		1.36525229		0.1724449662714813		-0.14292721118843513		-1.7693928538238213
H		-1.46973485		-0.49836876		0.17451631		0.6550943984154404		-0.06255241928287006		-0.392170410656268
H		-1.19874699		1.38881767		-1.21079895		0.10934310225139005		-0.643998597203194		-0.5231269256620231
H		0.07920405		1.98052787		-0.37525199		1.050975425097715		0.574280822051035		0.3599951119640193
H		0.50295449		0.70672307		-1.57328777		-0.3618276400033596		0.06029951588304459		-0.04545262948164745
H		1.04143106		-1.14014073		-0.30310471		0.8321984092326578		-0.4083113332590849		-2.1017264957369846
9
Lattice="50.0 0.0 0.0 0.0 50.0 0.0 0.0 0.0 50.0" Properties=species:S:1:pos:R:3:forces:R:3 Energy=-4209.476752610224
C		0.26937152		0.3901539		-0.28273361		-2.331258795916779		-1.6542129361084625		2.3658611645343535
C		-1.22752556		-0.13794305		-0.70177576		2.512210976777043		0.7024513411356009		-2.3142252377319856
O		0.92138776		-0.18347953		0.91063597		-0.43633903123867224		0.8604669167306733		-0.6066227796476669
H		0.95869355		0.11391347		-1.06330767		0.3926581489185556		0.49857967855694035		-1.228915455806158
H		0.07077754		1.46985529		-0.10866154		0.8296371277243516		0.04183328761648		-0.07553433032352425
H		-1.685963		0.70821549		-1.28506184		-0.08003052119749805		-0.2002019785143599		0.6278555148737542
H		-1.07644357		-0.87020269		-1.53877697		-0.14599345734994779		-0.1968598529878316		0.5162817749755773
H		-1.94088718		-0.56182313		-0.01408069		-0.3255543628887086		-0.10253739228683918		1.1077936673532562
H		0.46475513		-0.95438726		1.28652974		-0.41533013625040655		0.050480884435736166		-0.39249426680554445
9
Lattice="50.0 0.0 0.0 0.0 50.0 0.0 0.0 0.0 50.0" Properties=species:S:1:pos:R:3:forces:R:3 Energy=-4209.8683056390855
C		-0.24094513		-0.51113947		0.03185385		0.7093402005751249		2.165949000763932		-0.483566698893847
C		-0.94940698		0.7878501		0.44445247		-0.30042656069862556		0.8438738399327804		-0.8033162308414274
O		1.08276519		-0.31464003		-0.47920695		0.7685911177607979		1.339129030730611		1.2744542686644624
H		-0.29232894		-1.1409426		0.88039428		0.2600134990248046		-1.4650376989764862		1.6502509176191638
H		-0.71636957		-1.03666696		-0.76784716		-1.0072051198110072		-0.5133931406177484		-1.0500895772279808
H		-2.04185743		0.77018813		0.58199755		-0.5059964368895211		-0.7767538045312009		-0.3624952012180162
H		-0.69813488		1.11650975		1.46847992		0.8387703030792727		0.29618989697381		-0.02101203173407485
H		-0.82792533		1.61241764		-0.330406		0.3191402833517363		-0.51373098356801		0.7139740997323255
H		1.57283795		0.37408236		0.09830113		-1.0822272863925826		-1.3762261921297503		-0.91819964894473
9
Lattice="50.0 0.0 0.0 0.0 50.0 0.0 0.0 0.0 50.0" Properties=species:S:1:pos:R:3:forces:R:3 Energy=-4209.529375639421
C		0.15717706		-0.4399253		-0.42030474		0.22203717462404882		1.5137795406824064		5.3437914250381375
C		-1.22010014		0.10325374		-0.33179409		-0.5113289561870948		0.5308085076161939		-4.5938738692996814
O		0.98778215		0.24414823		0.68541624		-0.7369592988465269		-2.891572717321033		-0.7989100799987944
H		0.13194405		-1.44604959		-0.00177127		0.37692006675293		-0.8172258473106457		-0.660281290432171
H		0.630482		-0.24563949		-1.31043914		1.4777407995945655		-0.07543292601638336		-2.9944775716661014
H		-1.27111139		1.20683235		-0.57053259		-0.02165696724125578		-0.5935779280025805		0.20198082192050798
H		-1.89000253		-0.44091734		-1.11899528		0.6808766491942566		0.7777208992595976		0.9490543262292752
H		-1.60598296		-0.10159208		0.59273361		-1.4102480056623246		-0.41795615813533044		3.1382145260718532
H		0.99013781		1.16221909		0.49121683		-0.07738141080653646		1.973456629227775		-0.5854982364409632
9
Lattice="50.0 0.0 0.0 0.0 50.0 0.0 0.0 0.0 50.0" Properties=species:S:1:pos:R:3:forces:R:3 Energy=-4209.602667892205
C		0.14636		-0.42357056		-0.34256732		1.0251163497576066		-1.3871406277277547		0.8732894707998116
C		-1.22938861		0.1768605		-0.3252502		-1.4258479681682237		-3.382451890604823		1.4230748277626457
O		0.99204484		0.15776325		0.62050053		0.14876428376271592		1.461432960977053		0.4781935561669419
H		0.39721694		-1.55292063		-0.25752356		-1.3984948248037856		0.945950182007741		0.4398386111204062
H		0.55498537		-0.30072096		-1.30698856		0.8428068321370537		0.7369252574411885		-2.3329027592531353
H		-1.15332021		1.20300092		-0.32210977		0.5861925885501534		3.3517903031647576		-0.3193238601146637
H		-1.84770498		-0.07202647		-1.23418616		0.02359388206735882		-0.2549884836606499		0.8053385062911889
H		-1.70617143		0.00464812		0.72047502		0.03657784999051078		-0.2643248275842899		-1.5232807951603062
H		0.91237709		1.15210346		0.5086725		0.16129100670660995		-1.2071928740132225		0.15577244238711138
9
Lattice="50.0 0.0 0.0 0.0 50.0 0.0 0.0 0.0 50.0" Properties=species:S:1:pos:R:3:forces:R:3 Energy=-4209.4961794292485
C		0.24295815		-0.36784316		-0.18200951		1.7128288422450064		-4.487384023027158		0.7181157869078056
C		-1.0839086		-0.09121657		-0.77871618		0.14569114704483563		0.9089715998845987		1.202175623380497
O		0.75581117		0.45815645		0.84587749		-0.4155408638623047		-0.3704821273789834		1.1574662998114873
H		0.19036946		-1.50877443		0.16752947		0.6112238715290278		1.5840440352024767		-0.354966445633431
H		0.98850304		-0.36189994		-1.02839758		-0.1635506978186781		0.027804989027139425		0.30619832725360163
H		-0.90735757		0.95679164		-0.7624612		-1.2706646683505407		2.2177718467632865		-0.42615185786982296
H		-1.10181236		-0.39998935		-1.78887699		-0.12283954244886551		-0.6647796410327674		-1.7136150341577232
H		-1.9900471		-0.41139933		-0.25734521		-0.21196770635613538		0.03824814142283826		0.44185111637830277
H		0.84292645		-0.07851818		1.69071918		-0.2851804334044081		0.7458052305606321		-1.3310738674927798
9
Lattice="50.0 0.0 0.0 0.0 50.0 0.0 0.0 0.0 50.0" Properties=species:S:1:pos:R:3:forces:R:3 Energy=-4209.328922429478
C		-0.06133318		0.38857214		-0.46416379		-2.530315399412247		-1.5785625976120632		0.14960554870431056
C		-1.18604871		-0.1295674		0.54520917		2.8882823223893244		-0.8528837051819592		0.7671052772664595
O		1.14970993		-0.14067057		-0.04524251		1.7370413317235744		0.47512165357856034		0.6647993871047461
H		-0.38173489		-0.1892526		-1.40353192		0.15193080294599567		1.368118629810288		0.2389887146192435
H		-0.1507005		1.52841121		-0.55349109		0.7550013979420479		-0.9731487506524703		-0.17275982355982997
H		-1.06462453		-0.02949003		1.67741343		0.04252979945229294		0.5092214743798629		-1.1774221738050112
H		-2.16956186		-0.07441955		0.22482825		-2.8675425704758934		1.524661631803133		-0.7526540836355741
H		-1.14587261		-1.20313478		0.3703162		0.6306093720059156		-1.1173633131742076		0.3529390279774254
H		1.52564955		-0.8870219		-0.56312776		-0.8075370565710103		0.6448349770488563		-0.07060177182764506
9
Lattice="50.0 0.0 0.0 0.0 50.0 0.0 0.0 0.0 50.0" Properties=species:S:1:pos:R:3:forces:R:3 Energy=-4209.236875847476
C		-0.42502013		-0.39855243		-0.24238907		2.9457990305190505		-0.6321875151023423		1.785883343607137
C		-0.87410197		0.7432962		0.6922863		3.7078255049440387		3.097496325879485		-1.8675383391793245
O		1.15649838		-0.39212119		-0.4212596		-3.129930174701706		0.6236826659284325		0.6022572008123026
H		-0.68163689		-1.34565417		0.30192651		0.4377450646920966		0.11579348576444828		-0.18546528959278166
H		-0.8041044		-0.54566421		-1.23689044		-0.8311396803889846		0.5598344620940194		-1.063981350241531
H		-1.88823541		0.66609044		1.02955802		-0.9552052790727182		-0.22236869266062959		0.8754802049261414
H		0.02016122		0.90211412		1.4747789		-2.1645295461522096		-0.7613175184500632		-0.8245990511563359
H		-0.79744954		1.85316394		0.14417013		-0.3617003189767467		-2.4159330378854054		0.8585931481972524
H		1.27320543		0.58473618		-0.38774965		0.3511353991371789		-0.36500017556794545		-0.1806298673728604
9
Lattice="50.0 0.0 0.0 0.0 50.0 0.0 0.0 0.0 50.0" Properties=species:S:1:pos:R:3:forces:R:3 Energy=-4209.679345715456
C		-0.11405237		-0.19370245		-0.45478366		0.5316342945169928		2.2587544592007447		1.4145746065743556
C		-0.24316894		1.38611405		-0.10663693		2.7255505209150774		-2.6477664239375365		-1.933961297102404
O		0.27158624		-1.11148664		0.52626036		-1.2536779042425714		-0.09669564030487593		-0.03129037641963854
H		-1.09158024		-0.51588035		-0.64113857		-2.2631793790961696		-0.518114457281105		-1.0784503873280846
H		0.47828253		-0.16100957		-1.3784877		0.4012332406297648		-0.5930500291095235		-0.4645260347677131
H		-0.77337849		1.62616452		0.75644268		-1.685745253331903		0.4685736195689197		1.8765800346851567
H		0.78924659		1.79819638		0.01058084		-0.2311768805809004		0.08018504449514426		-0.1081023393066628
H		-0.65217859		1.71684		-1.06277444		-0.4357805362184608		0.8716499811828885		-0.12196588160793069
H		1.19431143		-1.0316569		0.65179038		2.2111420002522966		0.1764634461853442		0.44714162385085926
9
Lattice="50.0 0.0 0.0 0.0 50.0 0.0 0.0 0.0 50.0" Properties=species:S:1:pos:R:3:forces:R:3 Energy=-4209.753024340662
C		0.2256597		0.13714156		0.45724242		-0.14476950941963998		0.21924264264049373		2.8494300745768855
C		0.34080022		1.00316738		-0.75876863		-0.11678336046650802		2.254179746837418		-0.13319856835040486
O		-0.56388207		-1.02383325		0.26832304		-1.4595965248609668		1.831314067290183		-0.5732780918333642
H		1.22942843		-0.11031702		0.8726872		0.23076293297822092		-0.22661255547418743		-0.38222461244853395
H		-0.18769932		0.75303234		1.42228964		0.35126344007266613		-0.8574614514469703		-1.963447016240547
H		-0.59682825		1.60672239		-0.9915975		0.6637405554169481		-0.6614063537363977		0.1111045650004319
H		1.19267901		1.75007314		-0.73555413		-0.6028972512235512		-0.13431370719657978		0.7828587860508183
H		0.67097486		0.49545809		-1.64403638		-0.1871325985454873		-1.2439032900807159		-1.049669099023371
H		-0.10882301		-1.8328094		0.4100338		1.2654123160483182		-1.1810391502553061		0.3584241165342724
9
Lattice="50.0 0.0 0.0 0.0 50.0 0.0 0.0 0.0 50.0" Properties=species:S:1:pos:R:3:forces:R:3 Energy=-4209.83851370062
C		0.18061471		-0.39311563		-0.35366166		0.9145803585016253		-1.264977131133849		0.2663308022402561
C		-1.22191982		0.14634518		-0.37240344		0.5984258457836757		-0.45864828734203855		1.3301520241793343
O		0.9512015		0.16585207		0.6840914		0.058351442469391064		-2.6467363886047077		1.1245756173865082
H		0.29973522		-1.56412056		-0.19278637		-0.48793798557814266		1.9048667455932775		-0.5750207341075513
H		0.61646644		-0.06118415		-1.31651683		0.3230020288192679		-0.6743689300815727		-0.5288062353487237
H		-1.16535823		1.16132834		-0.73081023		-0.12557668741073233		1.3004589198633518		0.25200662110360894
H		-1.79640638		-0.32419085		-1.1200642		-1.28720298065193		-1.2250930996384588		-1.27958115113432
H		-1.68414097		0.02125057		0.626473		-0.205326958367907		0.31632091451202043		-0.10723279223072361
H		1.0382272		1.07332395		0.52672621		0.2116848850126897		2.7481773082540393		-0.482424152088389
9
Lattice="50.0 0.0 0.0 0.0 50.0 0.0 0.0 0.0 50.0" Properties=species:S:1:pos:R:3:forces:R:3 Energy=-4209.461573194812
C		-0.11602857		-0.11121739		-0.49410636		-0.9944269944038212		-0.8683386574717645		-1.2267494556918637
C		-0.10280706		1.42262628		-0.0165775		1.4004277801310803		-2.830657062285777		-1.8489947721308435
O		0.17477573		-1.22557849		0.47353075		-0.3555514744378639		2.362981631881578		-1.4882355797409588
H		-1.21937317		-0.21973429		-0.85362502		1.3042205979973662		-0.5207257724561698		0.7288275681577154
H		0.47006706		-0.27393948		-1.580563		-0.7876664403570195		0.5384422670522911		2.579268842905127
H		-0.65742043		1.60016518		0.87384897		-0.5904699271263627		0.06664412421365418		1.4317343545003889
H		0.94949085		1.75067753		0.01542182		-0.04920237769717457		0.5418831743607756		0.2140025802111955
H		-0.65858308		1.85170367		-0.84862727		0.01799720763500683		0.8804154373692678		-0.4130568697138529
H		0.94821491		-0.88317895		0.96237074		0.05467167968085113		-0.17064514266385575		0.023203331503091625
9
Lattice="50.0 0.0 0.0 0.0 50.0 0.0 0.0 0.0 50.0" Properties=species:S:1:pos:R:3:forces:R:3 Energy=-4209.84048748056
C		-0.29138737		-0.11765419		-0.47543682		3.0839715007035404		-0.06659697018239241		2.0575705764040038
C		0.89674022		0.9073653		-0.3980296		0.4466884926365969		-1.7666405907755958		-0.9737111023273651
O		-0.59449805		-0.75990304		0.75159793		0.2889310557949967		-0.22581566777248255		0.8320528847959393
H		-1.16870109		0.35326715		-0.78332412		-2.040245506547211		1.1341300422769762		-1.526043394043083
H		0.11085322		-0.90946698		-1.10465201		-0.48558079823567946		-0.4406090678820144		-0.9879889007636871
H		1.88727618		0.32996671		-0.21902824		-1.1374576153598324		0.7911633977135687		-0.3929459067799959
H		0.93199023		1.49668874		-1.3619354		0.23454991076695794		-0.31659545690341245		0.6166411343855104
H		0.78834523		1.58009839		0.43482901		-0.2635974625110101		0.9203839038911922		0.8184943781690932
H		-0.32750483		-0.20010114		1.51202329		-0.12725957724835876		-0.02941959036583933		-0.44406961841835274
9
Lattice="50.0 0.0 0.0 0.0 50.0 0.0 0.0 0.0 50.0" Properties=species:S:1:pos:R:3:forces:R:3 Energy=-4209.664374687214
C		0.18019198		-0.11351817		-0.53205259		1.211899124012283		-2.173105460616418		0.8218498220097947
C		0.42381713		1.18371263		0.17395282		0.6654839176000094		0.8813877771480336		-1.2100536890352689
O		-0.55531129		-1.01551663		0.29223021		-1.2459399637079616		-0.027601820458420575		0.45448371734877036
H		-0.24794633		0.11226694		-1.56074612		-0.33499751043604614		-0.2793650609404789		0.7262349706133806
H		1.08912614		-0.76277886		-0.74665093		0.060622960655821505		0.9994393085185521		-0.17266104177787375
H		0.825496		1.24620044		1.21960959		-0.6418641188131785		-0.5573353498592089		-0.25934501221302403
H		1.21031195		1.68413431		-0.42142339		0.03228878718406407		0.497452352681966		-0.10016632098751589
H		-0.52138669		1.7090714		-0.05061956		0.0161806204350243		0.718747095568439		0.8996531508386895
H		-0.73935572		-0.6232572		1.18830138		0.23632613164792143		-0.059618842042464607		-1.1599956996410776
9
Lattice="50.0 0.0 0.0 0.0 50.0 0.0 0.0 0.0 50.0" Properties=species:S:1:pos:R:3:forces:R:3 Energy=-4209.687328143674
C		0.14154457		-0.44321096		-0.32824915		1.3077853810542799		-0.5968683743563519		0.37960522400966534
C		-1.20652413		0.14113623		-0.30185404		-0.5932813255463997		1.9422602523382855		-0.8004201402845442
O		1.02145085		0.28997873		0.55840105		0.03058419723608601		-0.5731265510153398		-1.4502104043808806
H		0.19228704		-1.54578893		-0.1204236		-0.22681346147215875		0.12191821335604452		0.4089016585359497
H		0.3888949		-0.43908358		-1.41869415		0.9675506364023699		0.45802998846320403		0.37898980476632765
H		-1.18831143		0.97972718		-1.05605046		-0.1909907444686478		0.10856009850654519		0.83623833214656
H		-1.83800976		-0.54600102		-0.79042541		-1.7116746226313735		-1.4303471929438816		-0.6594452705409455
H		-1.67074096		0.49273016		0.64347612		0.2839653300688407		-0.2190218363043564		0.07751017165089788
H		0.59141672		0.05352619		1.3867776		0.13287460935700346		0.18859540195585056		0.8288306755190321
9
Lattice="50.0 0.0 0.0 0.0 50.0 0.0 0.0 0.0 50.0" Properties=species:S:1:pos:R:3:forces:R:3 Energy=-4209.825042836826