9
Lattice="50.0 0.0 0.0 0.0 50.0 0.0 0.0 0.0 50.0" Properties=species:S:1:pos:R:3:forces:R:3 Energy=-4209.783455217897
C		-0.17406277		-0.48797864		0.0185579		-0.7652595851791331		-1.1334298794747295		1.765168377127805
C		-0.98570278		0.68695664		0.58412528		1.4691521838809332		0.02024172923865383		-0.06583468952871277
O		1.06846394		-0.16863939		-0.50269058		0.7094895302444643		0.9625892815515217		-0.8069814411862959
H		0.16712676		-1.19985031		0.84958249		-1.4014217685981354		0.15454319798437177		-0.35446029827278824
H		-0.93496191		-0.92263607		-0.68150202		0.7747236615058857		-0.7652771715244893		-0.09747571299216146
H		-1.75179348		0.29946017		1.2842646		0.07002589615032728		0.25289781686783736		0.1201122191009256
H		-0.2072526		1.35456114		1.05486243		-0.9142734202108932		0.010683087739065613		0.059245363602929035
H		-1.47331516		1.17441302		-0.27787521		-0.10627330796756869		0.47679595593175844		0.14178065346210653
H		1.05895494		-0.40161254		-1.43156577		0.16383675875205775		0.020956033108072616		-0.7615545227358705
9
Lattice="50.0 0.0 0.0 0.0 50.0 0.0 0.0 0.0 50.0" Properties=species:S:1:pos:R:3:forces:R:3 Energy=-4209.406245386495
C		0.22927937		0.34043263		0.22884318		1.7754150972449654		3.215602158947945		0.05172504123658474
C		-0.98169102		0.72626404		-0.70885262		-0.5580631263089881		-0.7625009457951645		2.2790555294994594
O		0.71408976		-0.94681151		0.42485929		1.1161693443063048		-0.02910673853792602		-1.3178318636602804
H		1.18129132		0.88525915		-0.17645318		-1.204603310370572		-0.6962834704336137		0.020255818883763668
H		0.17896233		0.92701421		1.19442387		-0.5708866059752504		-0.454623019715933		-0.0013628903430332896
H		-0.96660517		1.58609307		-1.40722389		0.5169508274300447		0.32405073036076426		0.5868887404315293
H		-1.02901306		-0.11620693		-1.33654573		-0.3859521977551474		-1.7662212438563591		-1.5960700101022849
H		-1.95838617		0.69792764		-0.11042		0.8035828542352031		0.29702673961803433		-0.626551142837783
H		0.22355605		-1.66335171		0.81210607		-1.492612831384498		-0.12794415916568452		0.6038907254699821
9
Lattice="50.0 0.0 0.0 0.0 50.0 0.0 0.0 0.0 50.0" Properties=species:S:1:pos:R:3:forces:R:3 Energy=-4209.559403879149
C		0.28678675		-0.08054401		-0.47353047		-1.3837083593257609		-0.7949701729963469		0.25142909992029294
C		-0.66671069		1.10165901		-0.21085351		1.6591167496714352		-0.7635359176459883		-0.8256069750023138
O		0.3402451		-0.87922676		0.65828068		0.7196431764285994		-3.651280005307704		0.9051468783020276
H		-0.16287301		-0.64302268		-1.31618949		-0.06230960430400637		-0.20024316758637806		-0.33625637394675384
H		1.27993147		0.23446093		-0.84324063		0.3727762712728895		0.4612151224330887		0.012550377092618581
H		-0.1512842		1.86927971		0.33956012		0.5331650264718455		0.9879600015645933		0.40346871195042155
H		-0.73139242		1.33792963		-1.27271822		-1.1319695443233637		1.3206331319340159		-0.35401966261969986
H		-1.58192605		0.89916371		0.35305249		-0.45958411745646893		-0.5743112639120023		-0.3522161366235783
H		0.47292663		-1.9107182		0.44558433		-0.24712964985723243		3.2145322200946596		0.29550402950492305
9
Lattice="50.0 0.0 0.0 0.0 50.0 0.0 0.0 0.0 50.0" Properties=species:S:1:pos:R:3:forces:R:3 Energy=-4209.976029115367
C		0.23183474		-0.12985821		0.52582658		-0.08156922357202963		-0.3645570716558598		-0.17396047729585037
C		-1.18366458		0.38676774		0.31135695		-1.1742555517776063		-2.057494831706023		0.14290885351214236
O		0.8661473		-0.28079091		-0.75703093		0.6691194574148469		0.517310164802408		0.510835870030313
H		0.73682143		0.60933282		1.20367749		0.3625413782300915		-0.434905024183278		-0.12398646012963122
H		0.20738342		-1.18308217		1.05047296		0.08849412987732722		1.5839956984637784		-0.7250637302970786
H		-1.69259266		0.49096048		1.31016597		-0.07748183809449087		-0.13407176639277762		-0.5222352670992327
H		-1.30606593		1.32318797		-0.23431622		0.4431172303998152		0.646322565893318		-0.19725940241302659
H		-1.7092088		-0.40667253		-0.34700013		0.2366307559458436		0.9279793538907681		0.9273965362350204
H		1.35608725		0.56051382		-0.94232262		-0.4665963384237976		-0.6845791405343972		0.16136407745734377
9
Lattice="50.0 0.0 0.0 0.0 50.0 0.0 0.0 0.0 50.0" Properties=species:S:1:pos:R:3:forces:R:3 Energy=-4209.388565962468
C		-0.16215553		0.3016389		-0.42246818		-1.522473931578487		-0.5417514824588548		-1.461788236006483
C		-1.01965811		0.11629742		0.87294359		-1.8906568242793822		0.8521644647945458		-0.14020389876136588
O		1.12685261		-0.31875228		-0.38700783		-0.3519721903593408		-0.3478529232030864		-0.5372510235536982
H		-0.87935395		-0.15919401		-1.2173003		1.2321458411909938		0.2722884595509696		0.47124494429085745
H		-0.10909584		1.4129564		-0.83407068		0.22230636912094665		-1.5693548602665977		1.216337876442506
H		-0.93711596		1.02779721		1.56785159		-0.5806652310579768		-0.9211443847726861		-0.6776376249029299
H		-2.14823902		-0.25472395		0.62550138		1.85587401564469		1.725965482271557		0.24361135234476872
H		-0.83256198		-0.75066756		1.49935626		1.2868754735362202		-0.6823581702353497		0.24457027096523673
H		1.1010276		-1.19816206		-0.86612535		-0.2514335736397256		1.2120433628974403		0.6411163391811082
9
Lattice="50.0 0.0 0.0 0.0 50.0 0.0 0.0 0.0 50.0" Properties=species:S:1:pos:R:3:forces:R:3 Energy=-4209.581060118203
C		0.16051448		0.47118191		-0.2760352		0.5535314027898651		1.0174073598441526		0.7720052855968111
C		-1.29449855		-0.01470279		-0.19208423		-1.321319616467652		0.5033186329877154		-3.12043637642286
O		1.06572144		-0.39251262		0.48328917		-0.45444689915205994		2.6983024842462755		-0.22128744095360572
H		0.46401241		0.79285848		-1.38125642		-0.2041070727805323		-1.3475626089259725		1.4250562226727632
H		0.20788686		1.53876961		0.19087164		0.09702808393858067		-1.490221551214634		-0.09519427034767919
H		-1.77791125		0.57126884		-1.11048699		0.2882249794555691		-0.7858087669291437		1.6061213263821552
H		-1.43206998		-1.09946349		-0.58902215		0.2580299443880643		1.1463236016782912		0.9888293429522828
H		-1.94568196		0.23901528		0.70762861		0.9792028243302677		-0.48870196315988296		-0.5124235776303544
H		1.07884093		-1.25289728		0.08899116		-0.19614359508003992		-1.2530572399488644		-0.842670512249513
9
Lattice="50.0 0.0 0.0 0.0 50.0 0.0 0.0 0.0 50.0" Properties=species:S:1:pos:R:3:forces:R:3 Energy=-4209.680580367604
C		-0.0754261		-0.45712149		0.25290407		0.36006118931426073		-0.8003704665722228		-0.2458839503945105
C		-0.96684674		0.68763743		0.471792		-3.0355878650846098		0.7061434966411901		-0.5294497310381562
O		1.00191441		-0.2721805		-0.67238707		-0.9842622924762602		-0.9365325912254384		0.6202257663585278
H		0.25646646		-0.70603082		1.24814148		1.1103522234922527		-0.4219406480659174		1.1135395686108225
H		-0.74156522		-1.3041592		0.04132189		0.084984676959604		-0.6247318302684909		-0.8498729434258244
H		-1.84240457		0.32768948		1.12246832		1.253048395354124		0.7237284021795157		0.3357817483103896
H		-0.47651709		1.63510579		0.74587179		0.0009512053111013354		0.11263313722866188		0.6578353486099281
H		-1.64336372		0.94310841		-0.38378703		0.6664763634051913		0.02764568347768587		-0.5319234921961815
H		0.96245446		0.67635883		-0.73651157		0.5439760523022734		1.2134247651829535		-0.5702523148349954
9
Lattice="50.0 0.0 0.0 0.0 50.0 0.0 0.0 0.0 50.0" Properties=species:S:1:pos:R:3:forces:R:3 Energy=-4209.702031756588
C		-0.40725086		0.31780532		-0.30939538		0.7774423459473351		-3.0142711062084877		0.24344690458907067
C		-0.49867449		-0.02438477		1.23740941		-2.308674071824897		0.6550144371083391		-2.8191411942454194
O		0.7833251		-0.2878298		-0.89285742		0.05217333877697729		0.44947731677122066		0.8113055738393297
H		-1.1674037		-0.04642054		-1.04643286		-0.39008072088264184		0.005674424590768319		0.8365560690704056
H		-0.41837058		1.37343273		-0.37195045		0.246056317147825		2.141620451690426		-0.2605309078171228
H		-1.219334		0.63701467		1.72605327		-0.670118845198459		0.24976981280932858		0.1245235635718657
H		-0.76561308		-1.04364447		1.4883918		0.39111003630659663		-0.7948047996435248		0.14907708416856677
H		0.40770982		0.37763062		1.55269789		2.535186302855255		0.1902974208007064		1.3617472820072072
H		1.52310139		-0.22711024		-0.23440265		-0.6330946517059285		0.11722209350328586		-0.446984323761841
9
Lattice="50.0 0.0 0.0 0.0 50.0 0.0 0.0 0.0 50.0" Properties=species:S:1:pos:R:3:forces:R:3 Energy=-4209.299816144353
C		-0.39506549		0.04273486		-0.23225657		-0.3256051678864039		3.2345059889659136		-2.901126987945313
C		-0.44644767		0.21672187		1.17279286		0.37967448952777827		-0.5566315360905288		4.340417043191008
O		0.75323788		-0.27254369		-0.91542002		-1.0185620422563477		-2.4654867311132014		-1.5722755819913916
H		-1.08428403		-0.69356513		-0.54554745		-1.5542764203180117		-1.2368084338590386		-0.5314998258236999
H		-0.78964876		1.07738077		-0.63811546		0.08803595930094528		-1.1706472142338022		0.1446570493690735
H		-1.42217706		0.37218923		1.5902626		-1.709513713301262		0.9513355631855077		-0.38859760575761293
H		-0.31052444		-0.61642474		1.86346364		1.0269945920104602		-1.4666724577636643		-0.1895607483341242
H		0.14669883		0.96785183		1.6838213		0.72656772277946		0.9948308118601992		-0.27545081354719136
H		1.53006956		0.12554468		-0.63059957		2.3866845801433816		1.715573957626552		1.3734374708392518
9
Lattice="50.0 0.0 0.0 0.0 50.0 0.0 0.0 0.0 50.0" Properties=species:S:1:pos:R:3:forces:R:3 Energy=-4209.295883507115
C		0.29654172		0.50469098		0.28007993		-0.5607089456879533		-5.074251269036586		-0.14343094171214302
C		-1.14907517		-0.11796465		0.69799166		-0.03144022030960228		4.293586713812344		-0.49512555577840767
O		0.83102575		-0.38444223		-0.84862332		-1.5931491855333653		2.2613285448025993		0.15583049789561143
H		0.26198382		1.46392721		-0.13934628		-0.46069411409639943		2.262015183602423		-0.45619149546462
H		1.01269733		0.46978893		1.13741496		-0.11480314826382657		-0.032161260469201314		-0.3547351491965549
H		-1.73269756		0.88549675		1.13283804		0.7288785788436606		-2.374295719748902		-1.128505702775029
H		-1.63732582		-0.53755268		-0.24255852		0.20945445305415258		0.5080033371426114		0.9286128737000864
H		-1.2017109		-0.82079587		1.52365035		0.4902403055799775		-0.6694286582763267		0.3439828473614388
H		0.26375071		0.03176322		-1.59627581		1.3322222764133567		-1.174796820406899		1.1495625745475555
9
Lattice="50.0 0.0 0.0 0.0 50.0 0.0 0.0 0.0 50.0" Properties=species:S:1:pos:R:3:forces:R:3 Energy=-4209.707484435019
C		0.3183176		0.49814431		-0.15661292		-0.7103636024618986		-1.25701771577629		1.3588271259251
C		-0.96531029		0.09022651		-0.83965906		-1.8780153787141742		-1.8123140780154432		1.895837699914807
O		0.60643796		-0.53484957		0.83920365		-0.3309026687594529		0.4313495999417292		-0.25630190597961144
H		1.1854442		0.47993553		-0.77193565		1.1416078385976787		0.36991021120047385		-1.4932054192321103
H		0.21616322		1.49827007		0.28010052		-0.006438556438695979		0.46592810872232926		0.3180767722562558
H		-1.54437825		0.79530867		-1.46921135		0.5121291863228586		-0.08242442389254678		-0.27910522525894604
H		-0.93680511		-0.97794427		-1.18058585		0.5216715270286519		0.6194595776281022		-0.9468145868774356
H		-1.69286157		-0.21725281		0.02235908		0.7215454327846149		1.1183368870824724		-0.6555555000493817
H		0.85485769		-0.10103213		1.66994979		0.028766273062479916		0.14677183310917263		0.05824114214544726
9
Lattice="50.0 0.0 0.0 0.0 50.0 0.0 0.0 0.0 50.0" Properties=species:S:1:pos:R:3:forces:R:3 Energy=-4209.416095376703
C		0.145305		0.03149213		0.59344123		-0.3402645180260654		-2.525054151093222		-0.1971524445231417
C		-1.32273297		0.23833993		-0.0180853		2.7542800786249715		-1.9922699564158413		0.4258806064904274
O		1.03739242		-0.25161075		-0.50245265		0.025368560286448957		-0.21806991108438084		0.805749985634871
H		0.58942011		0.56850416		1.45765342		-0.1689280057326412		1.3031073617675017		-0.4841269422641816
H		0.19084583		-0.97177401		1.11895344		-0.712630955461271		0.25196748891408854		-0.3226096784828151
H		-1.91754606		-0.63864157		0.32633664		-0.3920464834857764		0.6808453845802903		-0.09508191314123761
H		-1.74687615		1.20677948		0.04724915		-0.9166836236997369		1.419875038504964		0.43445389842945104
H		-0.99806795		0.04567495		-1.06048419		-0.715171411034287		0.008486182965242372		-0.17153710975902078
H		1.44465926		0.56652412		-0.77008481		0.46607630710629466		1.0711125104392942		-0.395576453806415
9
Lattice="50.0 0.0 0.0 0.0 50.0 0.0 0.0 0.0 50.0" Properties=species:S:1:pos:R:3:forces:R:3 Energy=-4209.624195409171
C		-0.3767215		-0.16038447		-0.29537191		-1.1287015179888182		-0.886951952836921		0.5597647851994069
C		0.07656428		1.25944447		-0.39901712		2.4104963374893185		0.9472012807870195		1.4808514744180303
O		0.29732708		-1.01976322		0.5872997		0.22897637626270606		-0.25850359300524206		1.3457754351457083
H		-1.43890599		-0.04261626		0.04499329		-0.11765804974869169		-0.6839359533773391		-0.5579212014166409
H		-0.27171802		-0.73808196		-1.24139944		-0.5955044555720697		0.6671543118764618		-0.4140780604519415
H		-0.74988007		1.96914652		-0.40386762		-0.28434739599280456		0.44798993361500883		-0.3513755915908579
H		0.8452757		1.63080645		0.40630284		-1.3928164921362716		-0.8831379784654002		-0.5343554986395017
H		0.72931487		1.31501129		-1.24821332		0.3714738532752912		0.6801757150610734		-1.4083712546492817
H		-0.2579577		-1.04518567		1.39416107		0.5080812929892774		-0.02999176365466107		-0.12029003659285921
9
Lattice="50.0 0.0 0.0 0.0 50.0 0.0 0.0 0.0 50.0" Properties=species:S:1:pos:R:3:forces:R:3 Energy=-4209.755938086391
C		-0.27858835		-0.28003755		-0.43222729		-1.8116231711844366		4.145441705947649		-0.5325983039216429
C		-0.90491612		0.25323355		0.85648637		-0.24335635033710562		-0.16081571258343394		0.7168303896128767
O		1.07837685		-0.03625684		-0.45904916		1.8834911598777193		-0.14217608912230598		0.1201933116934008
H		-0.48917455		-1.31430462		-0.63255767		-0.37861267536035853		-1.1396987945294208		-0.3476369505408189
H		-0.79148257		0.47502047		-1.23857661		0.651812848078472		-1.963396108398727		0.7964069568431132
H		-1.98997385		0.15442517		1.07170767		-0.12198249093410032		-0.19045981167390666		-0.7342154690165422
H		-0.46969859		-0.22659287		1.73313304		0.5721803336442955		-0.4460142979758849		0.5976960124513987
H		-0.69232569		1.32907273		0.9843324		0.12882789873085848		0.2408860858793266		-0.20914550930298506
H		1.41693759		0.47579588		0.31310839		-0.6807375525153438		-0.34376697754329616		-0.40753038639673794
9
Lattice="50.0 0.0 0.0 0.0 50.0 0.0 0.0 0.0 50.0" Properties=species:S:1:pos:R:3:forces:R:3 Energy=-4209.731737126527
C		-0.29376757		-0.20132971		-0.40779038		-0.6616295254874074		-0.4800683017195494		-1.2376765411172292
C		-0.92128671		0.19647111		0.88363364		-2.25428624192874		2.074066979724501		-1.678284014915308
O		1.13788557		-0.04525437		-0.38655708		-1.0641280573856857		-0.4296407419625683		0.6891603834996544
H		-0.57660767		-1.28615216		-0.67026655		0.2073942281223073		0.930953914514942		-0.037759837517863756
H		-0.7570026		0.52706622		-1.19368888		0.5656105481022408		-1.1598069292498432		0.6051027949038653
H		-2.05342424		0.33616306		0.81875616		0.7451492393100255		-0.44061960940481554		-0.3810689015950902
H		-0.80510263		-0.44272026		1.68974471		0.9260900044724265		-1.5658876762842036		2.2678085988456878
H		-0.6116232		1.2295516		1.03502202		0.5466549360673904		0.47248375319721164		0.8312681841230338
H		1.21938944		0.41082614		-1.21379506		0.9891449201495057		0.5985186111843259		-1.0585506662267503
9
Lattice="50.0 0.0 0.0 0.0 50.0 0.0 0.0 0.0 50.0" Properties=species:S:1:pos:R:3:forces:R:3 Energy=-4209.636726005784
C		-0.40961095		0.09678593		-0.38593292		0.2480663027246619		-3.287603176516772		0.7872663767112001
C		0.39610325		1.21004824		0.07991633		-0.7577367431317292		3.0290457960342128		-1.273519004192719
O		-0.02035437		-1.21855422		0.23497656		-0.9711162422122828		1.0524677961939841		-1.9470344823038974
H		-1.45666131		0.27539563		-0.23977018		-1.4987358620480336		0.01843475796434845		0.032809281300128924
H		-0.18851714		-0.13814463		-1.42816244		-0.22949013408859065		0.35611624294969363		-0.7241807620628413
H		1.37903252		0.85525728		-0.02389291		2.4449581181881688		0.08067879913873789		-0.37290066124194315
H		0.14404508		2.16390268		-0.55387475		0.8001310968715429		-1.3634973290583863		0.48856276363684537
H		0.2927424		1.62288314		1.07114096		-0.5245854610412035		-0.2692871080322621		1.2965127907913487
H		0.31242072		-1.01058649		1.09121061		0.4885088733154033		0.3836441699043812		1.7124837487839408
9
Lattice="50.0 0.0 0.0 0.0 50.0 0.0 0.0 0.0 50.0" Properties=species:S:1:pos:R:3:forces:R:3 Energy=-4209.48142006655
C		-0.36176115		-0.23418256		-0.45732575		0.8019990032898452		2.0049301196117795		3.495992575813571
C		0.11360337		1.19645302		-0.27366449		-0.34059099670052656		1.5207519609734026		-1.8677036096880215
O		0.22743806		-0.86311724		0.69159894		-0.17478929809833338		-0.12459138927223021		-0.7876617095272744
H		-1.40103179		-0.13505771		-0.41215083		-2.9752726654725192		-0.4582844762502425		0.7957728713911082
H		-0.27410342		-0.61390244		-1.43780747		1.420791173969478		-1.038237871697798		-1.8263086437318197
H		-0.38000352		1.89837227		-1.01944435		-0.07636561938500462		-0.4718187630856773		0.4881416169454235
H		0.02660654		1.71996742		0.73190865		0.10592605477987989		-1.0757278976540148		-0.6450594343514274
H		1.11514611		1.1749529		-0.68345936		1.313600290719647		0.46546088786295703		0.45323153870618044
H		0.25925904		-1.81175512		0.5534934		-0.0752978916804037		-0.8224825704881762		-0.10640520555773925
9
Lattice="50.0 0.0 0.0 0.0 50.0 0.0 0.0 0.0 50.0" Properties=species:S:1:pos:R:3:forces:R:3 Energy=-4209.271802775905
C		-0.11985849		-0.45706087		0.29021524		5.644216340230765		-2.4294062353106556		-1.27799452339759
C		-1.10381447		0.534105		0.26175056		-4.17581671823371		1.188537669667174		0.3445591858373186
O		1.09300749		-0.01906781		-0.48670261		-0.7403688386969202		0.9186531915354922		0.621933955850877
H		0.12549744		-0.81275685		1.31667603		0.24304432126219147		-0.10961065124228961		-0.049523714165391246
H		-0.43211239		-1.28015574		-0.37668004		-0.6201583520346627		-0.6721919256459156		0.6783458095469177
H		-1.95687532		-0.12698744		0.68508167		0.25224413961004083		1.5904505556962696		0.002675901285495258
H		-1.00999307		1.56854261		0.69893193		0.20523311310394549		-0.8676008537198086		0.12141777384433305
H		-1.39264738		0.59538697		-0.77898325		-0.373604680698873		0.8011290448374063		-0.9273515933524438
H		1.89682687		-0.56092387		-0.39668988		-0.4347893245427776		-0.41996079581767315		0.4859372045504834
9
Lattice="50.0 0.0 0.0 0.0 50.0 0.0 0.0 0.0 50.0" Properties=species:S:1:pos:R:3:forces:R:3 Energy=-4209.648490144171
C		-0.40748035		0.0666469		0.32158298		-2.4579503650633745		0.7577438393763465		-0.8036606558156818
C		0.04143735		1.14246359		-0.66572518		-0.9043269020942847		0.1644107832351275		-0.1267664910915769
O		0.32659315		-1.0985423		0.37341665		0.3468873711365631		0.4108624331990271		3.1066594802968117
H		-0.55100876		0.46864764		1.32674224		0.5597694646070893		0.07455998508432282		0.7286655372389524
H		-1.48063994		-0.0978245		0.03319797		-0.08870305771703986		-0.5214255238819167		0.07357525258850754
H		1.00153521		0.7809686		-0.87854841		2.2931082021463984		-0.5422147952414813		-1.2559320417718955
H		-0.58962627		1.22183329		-1.59806415		0.4718668941361255		-0.05034626147625605		0.5678042132861301
H		0.26847246		2.13686265		-0.2659136		-0.4444717903687325		0.44712671145275024		0.3605789580610159
H		0.52794569		-1.48228927		-0.44396493		0.2238202860613799		-0.7407171203258577		-2.650924252792263
9
Lattice="50.0 0.0 0.0 0.0 50.0 0.0 0.0 0.0 50.0" Properties=species:S:1:pos:R:3:forces:R:3 Energy=-4209.595600431169
C		-0.35239584		0.33550455		-0.2927215		-0.4067128270259302		-1.3298131013657615		0.2008308703380581
C		-0.59609608		-0.05046819		1.27183283		3.993507200613157		-1.851140511952534		-2.5952606415268544
O		0.80910883		-0.27525794		-0.94234143		-3.184459929490209		-0.018927329900505857		-0.7911751733658684
H		-1.2984302		0.09349653		-0.88897398		1.0318574221896646		-0.018695159288568214		0.23562833426054738
H		-0.20631646		1.42827155		-0.37998227		-0.2792849453671902		0.3591368263197554		0.37736646167701215
H		-1.28088277		0.61956854		1.67600591		-2.011634373847127		1.249261777519824		1.1577824940734593
H		-0.67936275		-1.18203097		1.5588812		-0.3375601803400382		1.7346118449613142		-0.7286996814884156
H		0.42137582		0.27026338		1.64237221		-0.521387060179208		-0.2436523871505996		0.549804897346563
H		1.50165855		-0.25831732		-0.31734824		1.7156746934468816		0.11921809227913782		1.5937224386854987
9
Lattice="50.0 0.0 0.0 0.0 50.0 0.0 0.0 0.0 50.0" Properties=species:S:1:pos:R:3:forces:R:3 Energy=-4209.517361112386
C		-0.29512056		0.13737315		-0.46254404		1.8184790690819335		-0.1180479318261471		-1.2484765112042315
C		-0.96674251		0.32626508		0.94126084		0.11417117111638168		0.9139325947810099		-3.874435044147237
O		1.11746174		-0.45769384		-0.41137608		-1.4570264501799823		1.140941871466958		0.23296045481679345
H		-0.75846219		-0.56169814		-1.22063259		-0.5348319240480516		-0.046059769772931566		1.1837371116055901
H		-0.30803147		1.06693807		-1.12660709		0.2718347112719579		-0.19273575215770733		0.9858609015535398
H		-2.03356844		0.50760914		0.84039349		-0.6649497452153343		0.4100436396987207		-0.18700244930543986
H		-0.88343855		-0.55045125		1.44501545		0.35957561077859573		-3.524049172992252		1.916684975360809
H		-0.50618756		1.05407555		1.55373943		0.8366077996652249		1.5720486050077611		0.7245629822529924
H		1.78728975		0.22241501		-0.66641651		-0.743860242470725		-0.15607403278334933		0.2661075790671838
9
Lattice="50.0 0.0 0.0 0.0 50.0 0.0 0.0 0.0 50.0" Properties=species:S:1:pos:R:3:forces:R:3 Energy=-4209.43993274323
C		-0.12391654		0.24248832		-0.53370511		1.948070791128345		-0.5857350350385208		0.3500192832718175
C		-1.23675744		-0.08723224		0.55098222		-0.1866221317315992		1.5312712180215196		0.6089087474336443
O		1.22606267		-0.18294607		-0.07397582		-0.27649920655631305		0.6293259287493593		0.5585894825401717
H		-0.1623876		-0.29204978		-1.54135473		-0.7001957123664659		-0.29867944470500574		1.1271496001442383
H		0.01395808		1.27701694		-0.97584823		-0.8751716725514735		0.03650987002395894		1.0901821251865842
H		-1.13453579		0.40057608		1.57855725		1.1009991673983182		0.004885558730804777		-0.7909916480250034
H		-2.2413265		0.38641248		0.39500765		0.11440426732544333		-0.5335855560985179		-0.9239392252886158
H		-1.37281935		-1.13865918		0.88505615		0.21773489634755386		-0.13344472576332744		-0.8559479973050991
H		1.64828965		0.41912825		0.62695153		-1.342720347571746		-0.6505477624982083		-1.1639703679577378
9
Lattice="50.0 0.0 0.0 0.0 50.0 0.0 0.0 0.0 50.0" Properties=species:S:1:pos:R:3:forces:R:3 Energy=-4209.452333125344
C		0.35854246		0.33911769		0.11066212		-0.18952218178729072		1.5365403853381614		-1.6891885260552604
C		-0.83230513		0.66430324		-0.83230564		-2.0069717297570198		-2.670533490662848		2.167637752716677
O		0.40556427		-0.93920463		0.63289974		2.303410560935124		-1.048996755556907		1.1024663931060517
H		1.18522012		0.75022685		-0.56905675		0.4481860573611727		-0.9855387937543866		0.7893401770675309
H		0.36007805		0.98931376		0.97492576		-0.236092366952048		1.283944004600375		0.573599891100143
H		-1.6087016		-0.21907968		-0.95537583		1.2670815790393968		1.140614055818873		0.5855233304074361
H		-1.40063162		1.471922		-0.3566233		-0.2722743184837973		0.4971861920867526		-0.40315498594744664
H		-0.53552669		0.83509482		-1.82974923		0.5977284597728013		0.7858923792026787		-1.6765868811663844
H		1.20629958		-0.87749002		1.28879677		-1.9115461115504018		-0.5391079770726996		-1.4496371512287471
9
Lattice="50.0 0.0 0.0 0.0 50.0 0.0 0.0 0.0 50.0" Properties=species:S:1:pos:R:3:forces:R:3 Energy=-4209.671963505053
C		-0.43329865		-0.12509463		-0.27172555		-0.09847895743045679		-0.5956421124332341		-1.953089121624382
C		-0.50242823		0.39572437		1.0970495		-2.321220849373145		-2.4168947847193074		1.8142606087672233
O		0.87347471		-0.21317428		-0.71409506		2.453427588983117		-1.1822216520032836		-0.7805954439723166
H		-0.96895871		-1.15301423		-0.42260045		0.09709832647588007		1.4712945812685652		0.3768863853020288
H		-0.8296107		0.68455695		-0.8807915		-1.495363654614975		0.20516888694795207		-0.8765764204533366
H		-1.60691575		0.60881202		1.21545903		0.6033898231597087		0.16224365183545972		0.373308746729504
H		-0.31842718		-0.4940953		1.77308288		0.28138404537824363		0.9508357407385454		0.16409088658465928
H		0.06271647		1.27020655		1.3582738		0.7963714756200264		0.7858770040060077		-0.011807379712355678
H		0.94542575		-0.7590202		-1.54296323		-0.3166079010425241		0.6193387357813573		0.8935217383789756
9
Lattice="50.0 0.0 0.0 0.0 50.0 0.0 0.0 0.0 50.0" Properties=species:S:1:pos:R:3:forces:R:3 Energy=-4209.813395349367
C		-0.09294194		0.2107215		-0.53944299		-1.4289188423153565		0.6919104868212573		1.0291766872302994
C		-1.17567506		-0.0872961		0.54222987		2.3296042396355605		1.2794568640093913		1.3604243466066934
O		1.16695864		-0.14700343		-0.08480363		0.7558333554903401		-0.9423230239890816		-2.1177345437304442
H		-0.29628961		-0.32103933		-1.50281619		0.1322140929649018		-0.035446924571165356		0.31267966684825155
H		-0.24729977		1.33316057		-0.77163369		0.48632580107637763		-0.8043107849511697		0.05704300809048666
H		-0.87933192		0.41591175		1.54130966		-0.14791124316882143		0.3374924060617362		-1.1941548615024415
H		-2.1103935		0.32653284		0.27006689		-1.792148453429207		0.38125525514938957		-0.39087004954116744
H		-1.22548615		-1.06085611		0.99257887		-0.25845664466223006		-1.7045406342201763		-0.578598012725639
H		1.35120045		0.16748156		0.78340482		-0.07654225416950204		0.7965063042677563		1.5220337587239605
9
Lattice="50.0 0.0 0.0 0.0 50.0 0.0 0.0 0.0 50.0" Properties=species:S:1:pos:R:3:forces:R:3 Energy=-4209.225572112012
C		0.0636198		0.66513761		-0.06713187		0.06854483790779618		-2.1790779789031776		1.1285630383746548
C		-0.89972146		-0.28371579		-0.78908388		-2.0676640587750788		1.8628910188638257		-0.7665319726922639
O		0.78436538		-0.28923795		0.80321926		-0.19315335072682047		2.750577998661331		1.4921040614986705
H		0.85842335		1.22324254		-0.64460321		-0.8537402938981623		-0.15776201340515775		-0.2205680463000049
H		-0.56571146		1.37254966		0.55200738		0.8523601771642102		-0.26302096976894307		-0.03467538794624567
H		-1.64957327		0.22926788		-1.49773278		1.7216659807864336		-0.28213151647793927		-0.7907917190462188
H		-0.22974102		-1.09378541		-1.14870795		-1.0272676431620413		-0.24524138030220202		-0.5889886117735194
H		-1.84406848		-0.55146861		-0.20795875		1.6256151731446142		-0.754204973038905		0.8218984672808675
H		0.94222304		-1.13518193		0.39994306		-0.12636082244095098		-0.7320302370508939		-1.04100982939594
9
Lattice="50.0 0.0 0.0 0.0 50.0 0.0 0.0 0.0 50.0" Properties=species:S:1:pos:R:3:forces:R:3 Energy=-4209.851907463
C		0.06867869		-0.22905465		0.44813384		0.3782265470934615		1.013027382831304		0.8506630948373491
C		-1.2459771		0.49773686		0.15119753		0.28059368827846926		-0.29446643512891474		0.21707545981876356
O		1.04321581		-0.26522294		-0.59281332		-1.7826716244309684		-0.12980003282137476		-0.28944779610050314
H		0.42029528		0.22366452		1.44236304		0.24286861207481802		-0.27650424591843265		-0.9081229815880745
H		-0.24677067		-1.20701211		0.73995025		0.04062723456390293		-1.88948388703502		0.15832400512561545
H		-1.98016521		0.1283668		0.95041646		0.46014461793711575		0.6086124535098382		-0.940024869174305
H		-1.00314907		1.55975534		0.29201345		-0.6320215761068333		0.5308045481173856		-0.2147747339008645
H		-1.61402628		0.30245927		-0.88922312		-0.0048718290401320525		0.03975460216421704		0.4674401744685145
H		1.89227045		-0.00039372		-0.26726194		1.0171043296301663		0.398055614280997		0.6588676465135047
9
Lattice="50.0 0.0 0.0 0.0 50.0 0.0 0.0 0.0 50.0" Properties=species:S:1:pos:R:3:forces:R:3 Energy=-4209.741234045795
C		0.0637258		-0.45638248		0.41100752		-0.7513181898753242		2.299374751786217		2.16405250367891
C		-1.07560329		0.58837265		0.3105154		-2.3392985839579397		-0.8107370515169415		-1.1827805583999944
O		0.91145673		-0.10226297		-0.65294048		0.755829190303282		-1.9416674073803608		-0.16090924931502076
H		0.57753937		-0.26042021		1.41340096		-0.13916933828704176		-0.24465743136108045		-0.4334861866363049
H		-0.27683424		-1.50087602		0.4811798		-0.20962496861321903		-0.44014560083320076		-0.5074151715923693
H		-1.86274266		0.88068791		1.09261736		1.1839800808506413		-0.9963591269781169		-0.07229463754538572
H		-0.5846847		1.52003383		0.06669663		0.4290386410334038		0.8406205203080942		-0.2997935551099318
H		-1.74729115		0.32289173		-0.61050185		1.0169205986010517		0.40166498026605013		1.0387593428330493
H		1.48275796		-0.91336628		-0.6767593		0.05364262136720858		0.8919063142872766		-0.5461324879129527
9
Lattice="50.0 0.0 0.0 0.0 50.0 0.0 0.0 0.0 50.0" Properties=species:S:1:pos:R:3:forces:R:3 Energy=-4209.626271555179
C		-0.26523197		-0.46226433		0.09997404		1.6735937571776678		0.5333094710452524		1.6561235228385942
C		-0.99919583		0.90011057		0.26352082		1.743439521843252		0.5723513120019241		1.3988836784399918
O		1.16362647		-0.3841924		-0.30419452		-1.679533879565088		-0.41734387563780184		-0.8264939027353594
H		-0.25585398		-1.03632636		1.07314394		-0.21296004931719248		0.46950960394953745		-0.1606947678925641
H		-0.7796787		-1.14611819		-0.56945519		-0.6617756155668127		-0.1020248171683908		-0.7530190260127437
H		-1.97674451		0.80225353		0.71465716		-1.2931445428570982		-0.5065180622909597		-0.516755989235442
H		-0.64576894		1.70500938		1.0187435		0.7720819044698538		-1.4669072509007866		-0.37628263886686597
H		-0.91359612		1.51285482		-0.62021315		-0.6475437884543163		0.16991402378001752		-1.2523718352785396
H		1.16701562		-0.95816042		-1.11972164		0.3058427436917968		0.7477095952212076		0.8306109587429286
9
Lattice="50.0 0.0 0.0 0.0 50.0 0.0 0.0 0.0 50.0" Properties=species:S:1:pos:R:3:forces:R:3 Energy=-4209.58375543723