9
Lattice="50.0 0.0 0.0 0.0 50.0 0.0 0.0 0.0 50.0" Properties=species:S:1:pos:R:3:forces:R:3 Energy=-4209.560505975612
C		0.19970106		0.43197387		0.36250323		0.12762364545046695		-2.719196862301477		-1.5952000516498461
C		-0.49809287		0.74599562		-0.9490227		2.612263757850681		0.31245664936342904		-1.2460898590199876
O		0.30968448		-1.0350902		0.61090673		-0.5424614668750284		1.0691564666059616		0.2728797104249583
H		1.27266838		0.61605511		0.29452188		0.31997224090002846		1.2393404562138137		0.22425007165929237
H		-0.36913546		0.96917318		1.09395517		-0.1314184393926956		0.44782250337968904		1.679936925690529
H		-0.19007076		1.73384795		-1.43131626		-0.16236320813064356		-0.8617351904788085		0.46502313184536564
H		-0.28078976		-0.07821817		-1.64347345		0.868608623299599		-0.045428821066735584		-0.6370152754349592
H		-1.53448212		0.67466507		-1.01107593		-2.8588622692249226		0.2854382122034432		0.8166493545685788
H		-0.25925179		-1.52344439		-0.01074062		-0.23336288387748536		0.27214658608068476		0.019566043338130987
9
Lattice="50.0 0.0 0.0 0.0 50.0 0.0 0.0 0.0 50.0" Properties=species:S:1:pos:R:3:forces:R:3 Energy=-4209.559403879149
C		0.28678675		-0.08054401		-0.47353047		-1.3837083593257609		-0.7949701729963469		0.25142909992029294
C		-0.66671069		1.10165901		-0.21085351		1.6591167496714352		-0.7635359176459883		-0.8256069750023138
O		0.3402451		-0.87922676		0.65828068		0.7196431764285994		-3.651280005307704		0.9051468783020276
H		-0.16287301		-0.64302268		-1.31618949		-0.06230960430400637		-0.20024316758637806		-0.33625637394675384
H		1.27993147		0.23446093		-0.84324063		0.3727762712728895		0.4612151224330887		0.012550377092618581
H		-0.1512842		1.86927971		0.33956012		0.5331650264718455		0.9879600015645933		0.40346871195042155
H		-0.73139242		1.33792963		-1.27271822		-1.1319695443233637		1.3206331319340159		-0.35401966261969986
H		-1.58192605		0.89916371		0.35305249		-0.45958411745646893		-0.5743112639120023		-0.3522161366235783
H		0.47292663		-1.9107182		0.44558433		-0.24712964985723243		3.2145322200946596		0.29550402950492305
9
Lattice="50.0 0.0 0.0 0.0 50.0 0.0 0.0 0.0 50.0" Properties=species:S:1:pos:R:3:forces:R:3 Energy=-4209.624380342088
C		-0.158169		0.28862165		0.42046268		0.8305103257667246		0.43257725026053306		1.0323994621498938
C		0.27301983		0.93475072		-0.84621461		0.5431590071520901		-1.4212097495577778		-1.8080120568492606
O		-0.15884267		-1.12124729		0.34785667		-0.5196503828642646		0.31000561675700433		-1.2201421320442245
H		0.606002		0.64918622		1.17146887		-0.1711138547630388		-0.24503368659198804		-0.1391958720712632
H		-1.06674992		0.70686103		0.79999274		-1.7344284738866365		0.28517359427010297		0.5065872763870103
H		0.5788366		1.94243646		-0.78751912		0.8769564294948028		1.8938207723595397		0.9906735437997981
H		1.164342		0.29716602		-1.01029825		0.30247686117241906		0.3653327734678375		-0.9843263643660664
H		-0.31403293		1.05316446		-1.79942543		-0.4580692234968492		-1.1373677295946791		0.601902234315247
H		0.18340847		-1.43015696		1.17742187		0.33015936284681535		-0.48329884137057266		1.0201139601009275
9
Lattice="50.0 0.0 0.0 0.0 50.0 0.0 0.0 0.0 50.0" Properties=species:S:1:pos:R:3:forces:R:3 Energy=-4209.473023652941
C		-0.17310169		0.58438358		0.27766879		-0.40877737141102094		-3.5114080359594184		-0.9839720663558225
C		-0.61157331		-0.01498934		-1.08315879		-1.6427207222168305		-0.38873449128784066		0.35078655186555435
O		0.71021693		-0.51367675		0.71143624		-0.25101792910898546		2.258576590286748		2.9855968272157214
H		0.27779538		1.4809013		-0.01350661		1.972973930327607		2.1787225496075604		-0.3165714942223133
H		-0.86106379		0.91704885		1.09270938		-0.6372889950733521		-0.6666886336789629		-0.41501111377499983
H		-1.30956911		0.51092629		-1.74086522		-0.19586920695483517		0.9917516073389505		-0.010851032195009878
H		0.24802665		-0.25499284		-1.69149183		1.1493249017749363		0.27779967051553855		-0.28655885321029967
H		-1.0961677		-1.00701634		-1.05618952		-0.15691462923813218		-0.262072695515401		0.8306916913809669
H		0.81671158		-0.27953947		1.71474461		0.17029007332267534		-0.8779465098851122		-2.1541105107037977
9
Lattice="50.0 0.0 0.0 0.0 50.0 0.0 0.0 0.0 50.0" Properties=species:S:1:pos:R:3:forces:R:3 Energy=-4209.805282272196
C		-0.01418772		-0.47246329		0.3693244		1.8526511893030333		-2.3927513550706028		-1.8449803545599133
C		-0.967335		0.59570357		0.42586631		-1.6968417744530238		3.3752466312150773		2.3537950290037766
O		0.92278643		-0.09094678		-0.68251434		0.3270397920065475		-0.2257104068106583		0.705588292632975
H		0.55293176		-0.66727344		1.31457708		-0.12745487824152354		0.14313243663965175		-0.1525862285539153
H		-0.51146853		-1.47636012		0.04861556		0.45847304095322716		1.0646933401181398		0.7119683821866714
H		-1.60465357		0.52905323		1.35652704		0.1305972804775168		0.016032010674559227		-0.3944647088163614
H		-0.50369184		1.67252548		0.47329437		-0.33739105317665774		-1.6973459163532312		-0.09426965024286173
H		-1.64959572		0.59578893		-0.40831613		-0.5805633125302115		0.01608687801518768		-0.9258839562682107
H		0.76367191		-0.68014453		-1.42645939		-0.026510232916845317		-0.29938361842812294		-0.35916675396009823
9
Lattice="50.0 0.0 0.0 0.0 50.0 0.0 0.0 0.0 50.0" Properties=species:S:1:pos:R:3:forces:R:3 Energy=-4209.779788143055
C		-0.04370833		0.33751561		0.49418488		-1.1744927617516636		-1.6668683170525933		0.7867111727029851
C		0.24857255		0.90355423		-0.86808128		2.1821889622590174		-0.7658179259331575		-0.26099879716330676
O		-0.14769496		-1.10979505		0.31415209		1.8123184488907507		1.161027637590217		-1.0954744324313261
H		0.7287072		0.46714388		1.28020736		0.1848721361024825		0.6281872385985848		-0.09079490721728868
H		-1.03357721		0.72766069		0.9374668		0.8777042605489355		-0.16990435643227797		-0.5166910945926367
H		-0.12946847		1.91515222		-0.91743845		-0.3921560124787834		0.7911310532362911		-0.5907098110476671
H		1.40427448		0.94783342		-1.05163191		-1.6208628489776031		-0.09397947554448652		0.12093317232785458
H		-0.18308531		0.14457987		-1.59029905		0.08757043536963377		0.9992187592927269		0.24697528082577355
H		-0.88460342		-1.37638311		0.81042614		-1.957142568540707		-0.8829946651773669		1.4000494165956123
9
Lattice="50.0 0.0 0.0 0.0 50.0 0.0 0.0 0.0 50.0" Properties=species:S:1:pos:R:3:forces:R:3 Energy=-4209.230342952519
C		-0.34595296		0.39859502		-0.31667774		0.23075167154654555		0.033307766773467466		2.4708123598544076
C		-0.51941434		-0.04143845		1.2192321		-0.8500068464764303		4.204524215878815		-1.757279050041358
O		0.7621657		-0.37445945		-0.85403498		-0.7687595250153041		1.2948685189226181		-0.5834943700895572
H		-1.25878108		0.11236654		-0.87516619		0.14955150411668122		-0.46938531682460866		-0.1189464809453051
H		-0.52324401		1.58118298		-0.23803313		1.5382946489984615		-1.51577409964051		-0.9030692727130756
H		-1.47509931		0.55053976		1.45606135		0.15593971835624387		-1.773604886380726		0.34606950323338076
H		-0.33699565		-1.08198404		1.25115187		-0.6033547533131214		-1.8447157366265734		0.6022580749873641
H		0.16061256		0.51016271		1.9045129		0.5781483267895605		-0.24355483949814208		-0.33257784528771267
H		1.64617502		0.01425508		-0.69703302		-0.4305646421585115		0.3143343773956583		0.2762270295797935
9
Lattice="50.0 0.0 0.0 0.0 50.0 0.0 0.0 0.0 50.0" Properties=species:S:1:pos:R:3:forces:R:3 Energy=-4209.634575185018
C		-0.09847947		-0.21592462		-0.57229749		2.082727997702055		0.6998549897807077		0.0601033407148182
C		-0.34477535		1.26257691		-0.05011581		-3.563998510506947		-1.2466141583686734		-1.4930696649872564
O		0.44033237		-0.9131852		0.57527907		-0.09820343801987828		1.130709652371407		-0.5879156904406116
H		-0.87084632		-0.8264986		-1.10752429		-0.8313140011806721		0.6981443834514236		0.7440538979578918
H		0.68335875		-0.30974401		-1.41258178		-0.2154408038757102		0.9012443037169147		0.6574500430960303
H		-1.28119962		1.26721468		0.62776063		1.1213872438266894		-0.3002957943938288		-0.4329777252828521
H		0.46048608		1.64870767		0.53700139		1.2262969929644132		0.2911378336048094		0.42034599848744614
H		-0.69942092		1.98266798		-0.84951774		0.7575868478197029		-0.4078314625723515		0.2284129447244999
H		-0.00106107		-1.74052453		0.48997743		-0.47904232872965347		-1.7663497990124712		0.40359685573003357
9
Lattice="50.0 0.0 0.0 0.0 50.0 0.0 0.0 0.0 50.0" Properties=species:S:1:pos:R:3:forces:R:3 Energy=-4209.2243163276125
C		-0.41079578		0.21568952		0.2367005		-2.243421068666558		-1.159641761585271		0.4904148834819771
C		0.86617929		1.01508737		0.1822986		0.20936019641369155		0.4449722298804439		-0.3440149347284043
O		-0.46213489		-1.10092878		-0.40116033		2.423184062910727		-0.07574300105292467		-0.0865395258617432
H		-0.82569259		-0.10908545		1.28581799		0.5952741875764425		1.6446099687910474		-0.9362184538459639
H		-1.12265562		0.96960082		-0.30031733		0.10357148996260132		-1.8282507007641675		0.6077167326041147
H		1.44377666		0.60042457		-0.76013819		-0.8970802993663335		1.528457299920423		1.087427702411736
H		0.48113429		2.15169754		0.26687107		1.5514256840202048		-1.994010130431031		-0.640862828413256
H		1.51140146		0.79617778		1.04581335		0.3606669412098588		0.09704397335587607		0.24495603927769666
H		0.42029348		-1.60091412		-0.16311183		-2.102981194060634		1.3425621218856039		-0.42287961492615694
9
Lattice="50.0 0.0 0.0 0.0 50.0 0.0 0.0 0.0 50.0" Properties=species:S:1:pos:R:3:forces:R:3 Energy=-4209.5026027076365
C		-0.14578485		0.32337912		-0.39624167		1.9175194011680985		-0.3759868077416219		-2.770789234616955
C		-1.20845323		-0.1430245		0.52191596		-1.1246960992788162		-1.3868444366480732		0.7414113181688607
O		1.261099		-0.11358593		-0.05878773		-2.2888446446829245		1.5761188669385056		-0.12249738004535872
H		-0.44539327		0.09192985		-1.51170028		0.501396013494972		-1.0957224924605593		1.3298202490324416
H		-0.22666318		1.38930181		-0.73232874		0.7594363451396502		0.5301898487829223		1.6367578198557473
H		-1.08229381		-0.05314883		1.63462699		0.3587958466236849		0.49380452299420435		-0.5403370157871896
H		-2.14031625		0.37256367		0.22775826		-0.25555890859934854		0.1131828390761953		0.1675511800106854
H		-1.44086645		-1.24720786		0.39534896		0.2905278136780284		0.5915409458429601		-0.08103397132404316
H		1.45387633		-0.90106907		-0.57809166		-0.15857581896540693		-0.44628333820659544		-0.36088291387212634
9
Lattice="50.0 0.0 0.0 0.0 50.0 0.0 0.0 0.0 50.0" Properties=species:S:1:pos:R:3:forces:R:3 Energy=-4209.893672675499
C		-0.00902536		-0.21823776		-0.53733526		-0.5626210236578956		0.6045578238860767		1.540667262959658
C		-0.29220333		1.2691071		-0.17298495		-0.5399164347384547		-0.18267641403609547		-0.5254049744503841
O		0.25013732		-1.00082832		0.60804103		-0.6424230252098896		-0.9772669379454134		-0.10861218905580163
H		-0.93898831		-0.7221073		-0.84928875		-0.0582798629584681		0.3083979059746719		-0.9720085178398225
H		0.77745713		-0.27305893		-1.2816402		0.6829677273635688		-0.2748540605125211		-0.8355047450037245
H		0.05891665		2.05082228		-0.88177961		-0.06253683839794934		-0.3688830040810794		-0.35886572920654713
H		-1.39486811		1.36065266		-0.09421613		0.09928170724728039		0.40244150483102703		0.3168668625489954
H		0.17836155		1.57333592		0.77325219		0.03224764953410834		-0.21083832359866328		0.4493802833393876
H		0.93707799		-0.62688092		1.14625194		1.0512800493956374		0.6991215569040595		0.4934817981303015
9
Lattice="50.0 0.0 0.0 0.0 50.0 0.0 0.0 0.0 50.0" Properties=species:S:1:pos:R:3:forces:R:3 Energy=-4209.8577060976295
C		0.22531367		0.42418824		-0.39484575		-0.7568517694370566		-4.099837484225914		-1.3492953267421075
C		-1.2136044		-0.05055743		-0.24086549		-1.1692985163800036		0.4748486538490416		1.0819692504832352
O		0.94200527		-0.28414828		0.58831506		1.3499819141198688		-0.4350478232506868		0.3011629760548955
H		0.58631259		0.24072075		-1.47574735		-0.06501718157996754		0.14737336839565027		0.8817256200982951
H		0.25009071		1.45793483		-0.22999342		0.4163260787558348		2.2289530600212535		0.6352722217842726
H		-1.46643384		-1.16305505		-0.27299614		0.765272286428557		0.8177700469974979		-0.026300122369696432
H		-1.56709005		0.36098944		0.76714404		0.1961327964469265		-0.6720422360221391		-0.7422365394269727
H		-1.86881383		0.42447377		-0.96376868		-0.6153376365246007		0.3395102592141271		-0.7291385173693185
H		0.88870898		-1.26439141		0.41201162		-0.1212080232516213		1.1984721035991077		-0.05315956251260343
9
Lattice="50.0 0.0 0.0 0.0 50.0 0.0 0.0 0.0 50.0" Properties=species:S:1:pos:R:3:forces:R:3 Energy=-4209.44333461239
C		0.10515838		-0.19778228		-0.54334527		0.26347950029976214		0.6013980409929771		0.015282945490927857
C		-0.31088314		1.24643866		-0.15265439		-1.2376726330404835		0.5472849591764624		-1.7735557268890287
O		0.24327514		-1.01351764		0.62094538		0.40404088523924325		0.9803420287016666		0.37762285208036117
H		-0.58095455		-0.72609207		-1.1609637		-2.0248393023726035		-0.29836900971402736		-1.0069978888993552
H		0.94255664		-0.2145415		-1.3193854		0.436205899519003		0.24337085135871506		1.3487804890529118
H		-0.96380543		1.76869371		-0.96205929		1.4930396345027888		-0.542935218336331		0.11973915203788954
H		-1.2109186		1.2925516		0.54219316		1.2827437622408542		-0.3829006583034939		0.6220821542348425
H		0.60099293		1.88951142		0.06159963		-1.06525054958679		-0.3493388151194873		0.32973713629208223
H		-0.19902136		-0.41956738		1.27571452		0.4482527517761635		-0.7988520759123567		-0.0326911134006311
9
Lattice="50.0 0.0 0.0 0.0 50.0 0.0 0.0 0.0 50.0" Properties=species:S:1:pos:R:3:forces:R:3 Energy=-4209.699493767658
C		-0.42626143		0.08743796		0.3153228		0.044560765230607265		0.5934486015155321		-1.3843362741302727
C		0.11248185		1.14626973		-0.68630183		1.7579650203543697		-1.5729720424051423		-1.3553199355781242
O		0.25248344		-1.14337633		0.41450627		2.1652778400049044		-0.10440627572432795		-0.8751819569639623
H		-0.60782998		0.61718758		1.27973792		0.3940505041033697		-0.5122699799298321		0.1875208351169445
H		-1.361732		-0.24094951		-0.07736743		-2.107585834064304		0.31938890902365624		-0.2732634218549204
H		1.24432767		1.21731676		-0.58456094		-0.72911393762347		0.21264411216553242		0.17126112754988032
H		-0.02472561		0.98548138		-1.8391904		-0.142531466995861		-0.36093603286263165		1.657485693272753
H		-0.31918176		2.10630893		-0.50332188		-0.4783733276972485		1.3001599519922986		0.4014633029371422
H		0.79941522		-1.23858235		-0.43428861		-0.9042494604682432		0.12494280764697699		1.4703706810726218
9
Lattice="50.0 0.0 0.0 0.0 50.0 0.0 0.0 0.0 50.0" Properties=species:S:1:pos:R:3:forces:R:3 Energy=-4209.555768616754
C		0.43151114		0.2882154		0.11042636		1.5612451382205126		-0.9454042853928282		0.2317283822006194
C		-0.72394562		0.93756136		-0.54703509		-0.10869384729096376		-1.4928939043778204		0.5653564202696393
O		0.32207508		-1.11834675		0.3908837		-1.2230689215723871		-0.5474037441407096		-0.05797179338236213
H		1.38712306		0.43264927		-0.42653735		0.16523065659874517		-0.39199264458639677		-0.6210700652018066
H		0.67349172		0.88097035		1.0231971		-0.30831295672751335		-0.1877979486114588		0.4724012722090505
H		-1.19468834		0.38610573		-1.34651305		-0.4809139889585143		-0.84807882766713		-0.48654994984657396
H		-1.32594932		1.09547635		0.30803306		-2.1954385765567586		0.24508222901893578		0.8601978250779003
H		-0.55308119		1.88205482		-0.94193241		0.9232847766998827		2.540720653747924		-0.9143443826570667
H		-0.61562596		-1.53329164		0.38178023		1.666667771009059		1.6277684720094843		-0.04974776009146264
9
Lattice="50.0 0.0 0.0 0.0 50.0 0.0 0.0 0.0 50.0" Properties=species:S:1:pos:R:3:forces:R:3 Energy=-4209.112445815546
C		-0.3677427		0.29206774		-0.32894846		-0.578489306485631		1.2528296459004842		0.7125070282907793
C		-0.49297004		0.01995695		1.23236023		-0.007719428592130034		-0.5514385248483675		-3.5645093886973345
O		0.74613294		-0.29134387		-0.83458332		3.519140165800972		-0.9501558382289024		-1.2148344496028114
H		-1.25085522		-0.24272628		-0.92731325		1.0225902409400127		1.4969798500376108		1.1982453837257891
H		-0.21221488		1.44604787		-0.54823432		-1.3863178233065776		-1.351610399415429		0.4078813419729227
H		-1.34141509		0.53491001		1.53405816		-1.650224640945255		1.7590369132460286		1.7653115875717136
H		-0.75254641		-0.99499439		1.33501883		-1.1515292113257516		-2.3134454735770746		-0.26972265290116837
H		0.39622473		-0.11405303		1.79284038		1.760182288264921		1.4780977201299939		0.9677125130549457
H		1.57250413		0.27581029		-0.70385639		-1.527632181506436		-0.8202939446664066		-0.0025913119927737913
9
Lattice="50.0 0.0 0.0 0.0 50.0 0.0 0.0 0.0 50.0" Properties=species:S:1:pos:R:3:forces:R:3 Energy=-4209.613389367654
C		0.4428369		-0.36394614		-0.18391502		-0.10343774117818277		2.915277516777085		3.233845369729687
C		0.20383226		1.07587586		-0.63055748		2.1181135243306617		-0.2812639748624353		-0.7025481174571219
O		-0.61000191		-0.67414247		0.70132138		-1.2804965152678975		-1.800310625978986		-1.3782386973876473
H		0.60336104		-1.03505504		-0.98210926		-0.665167466227725		-1.5298374680764377		-1.5942318256360752
H		1.43133878		-0.36723157		0.29656294		0.5390902878832189		-0.14950522426048102		0.5871782466430926
H		0.217221		1.81882326		0.24206685		0.12829938277305225		-0.6979190519737911		-1.0862229349107202
H		0.99659482		1.21932402		-1.43987087		-0.35322724863742766		0.7905213932639471		0.8137054929156844
H		-0.70963126		1.09716592		-1.18658009		-1.4332489913496964		0.3388420809347212		-0.35555949627960526
H		-0.56285589		-0.5170329		1.6429244		1.0500747162519346		0.41419535417637776		0.48207196238270555
9
Lattice="50.0 0.0 0.0 0.0 50.0 0.0 0.0 0.0 50.0" Properties=species:S:1:pos:R:3:forces:R:3 Energy=-4209.606578091998
C		0.03634166		-0.47393233		-0.32784941		0.2395995058769612		-1.0723721967030009		-0.14227775053975905
C		-1.25796615		0.12811559		0.14677928		-1.557402830292585		-0.3210733929452184		0.6018705583247812
O		1.13697607		0.29260596		0.11055213		0.8123570007501356		0.7703614765266427		-0.15710576504423898
H		0.09748948		-1.49392357		0.08453477		0.18377010988223097		-0.591361791377403		0.3666521607460426
H		0.08267871		-0.7138419		-1.47662074		0.05327150834254546		1.0171575000427342		1.3973199849431122
H		-1.3699711		1.04727579		-0.48876566		-0.6231059674981156		-0.1028979123666387		0.6567908122554897
H		-2.2247838		-0.61501775		0.05930918		2.0815404051698954		1.7304378647306187		0.13810114778387883
H		-1.08044012		0.41683027		1.28084276		-0.666286204618271		-0.4039649348530125		-1.760056509900181
H		1.00338381		0.83331765		0.94351245		-0.5237435790348595		-1.0262866130547221		-1.1012945357250004
9
Lattice="50.0 0.0 0.0 0.0 50.0 0.0 0.0 0.0 50.0" Properties=species:S:1:pos:R:3:forces:R:3 Energy=-4209.732724710768
C		-0.23570735		-0.5043678		0.29795775		2.183503567285415		3.2361131341055596		2.090584980311225
C		-0.9759172		0.83091201		0.05523206		-0.13690270519654354		-0.41600206834037096		1.1555173008007094
O		1.0612317		-0.29509545		-0.33689838		-1.6115463025480046		1.1155616897943963		-0.10948255888473996
H		-0.08940695		-0.58909499		1.4623229		-0.4084378315326989		-0.5017603902294548		-1.567805667791327
H		-0.72948053		-1.29821542		-0.17754326		-1.2321067604235358		-2.0102710721275936		-0.5111135491675142
H		-1.8698717		1.09779187		0.70806205		0.3514762759891246		-0.7957934916381484		-0.9192713361481395
H		-0.29137333		1.63273413		0.27660654		1.018862398523087		0.6780275069803854		0.5762521382369136
H		-1.06276089		0.96158551		-1.00858381		-0.9690688727960485		0.0337986417815642		-1.1338766343532487
H		1.63440833		-1.01327242		-0.12179353		0.804220282121267		-1.3396738989042745		0.41919532699612194
9
Lattice="50.0 0.0 0.0 0.0 50.0 0.0 0.0 0.0 50.0" Properties=species:S:1:pos:R:3:forces:R:3 Energy=-4209.851258389161
C		-0.20589459		-0.02816254		-0.48841445		1.7220341627535376		0.9245247683136734		-0.9573066930765818
C		0.18450336		1.30766322		0.1972907		-0.7863846940285237		-0.8880527963497361		-1.7152732414053762
O		0.05239358		-1.13380473		0.30485512		0.3522747063527028		-1.431435438051398		0.606495921419616
H		-1.24487982		-0.16358246		-0.71107577		-1.591156014970948		1.0965809323710105		-0.7551245537816029
H		0.37051729		-0.05981461		-1.49282135		-0.45848152559353056		-0.04761940092687813		0.6804084513156982
H		1.25071147		1.28114573		0.44567967		0.3558440145511116		-0.0028293961418925707		0.24284624347765463
H		0.03477535		2.0883175		-0.61171537		-0.07066769491169911		-0.14166222845229648		0.9886519882589112
H		-0.43916702		1.40488742		1.09247296		-0.09022324814909138		0.5598423296695735		0.3165464516779027
H		-0.54970915		-1.80179741		-0.09256123		0.566760293996441		-0.06934871900999355		0.5927554321137781
9
Lattice="50.0 0.0 0.0 0.0 50.0 0.0 0.0 0.0 50.0" Properties=species:S:1:pos:R:3:forces:R:3 Energy=-4209.6977816566005
C		0.05074272		0.61965379		0.12102496		0.756677191535057		-1.1606973022610727		1.025992067481039
C		-0.80573588		-0.03909528		-1.00401141		0.9679829931034045		3.414601375421724		0.2244806996093567
O		0.67647489		-0.52019055		0.74771161		0.20767401556406867		-0.7208046979750996		1.9203331135809454
H		0.91253285		1.22665734		-0.23669731		-0.2342275458574924		0.10846964709870503		-0.7128560812506537
H		-0.34899619		1.28071819		0.93628957		-0.863584276422256		-0.20634310974387593		-0.6220550033858717
H		-1.04424914		0.75895807		-1.77604595		-0.2697393650714629		-0.7999580102093541		0.39080258379523997
H		-0.11936883		-0.7500972		-1.41949801		0.5894716706281246		-0.8552110677282047		-0.6929255069118523
H		-1.65244684		-0.5492135		-0.59559952		-1.1594039345464644		-0.45938963921630327		0.3538569117920625
H		0.51016943		-0.62933373		1.74459425		0.005149251067020998		0.6793328046134807		-1.887628784710266
9
Lattice="50.0 0.0 0.0 0.0 50.0 0.0 0.0 0.0 50.0" Properties=species:S:1:pos:R:3:forces:R:3 Energy=-4208.9372034952585
C		0.02239098		-0.63475417		0.13818704		1.2730194388560692		4.650600734550259		3.671052456804488
C		-1.26029282		0.22241591		0.04844547		2.4688537963400154		-0.9115829664817259		-3.9192271058147203
O		1.10159301		0.3511556		-0.07914041		1.4173110316273485		-0.4251310270861716		-3.0044409562191916
H		0.38521225		-1.00310128		1.1527838		-1.245008967267401		-0.16923602388668468		-0.538507367383346
H		0.15651179		-1.34845397		-0.56198746		-0.10648856072096204		-3.3027369466045475		-2.7102285975008162
H		-2.11670353		0.07645942		0.56144534		-3.0556293568121036		-0.7561140685292254		3.0389176493161516
H		-0.96869358		1.25018316		-0.06746172		0.40358050351417624		1.1253030338818506		0.8924245972546563
H		-1.66643812		0.10407546		-0.98541659		0.11519873819021335		-0.37683177507171256		-0.23436504845246933
H		1.47407874		0.25877419		-1.0670677		-1.2708365723052935		0.16572903922795884		2.8043743719952485
9
Lattice="50.0 0.0 0.0 0.0 50.0 0.0 0.0 0.0 50.0" Properties=species:S:1:pos:R:3:forces:R:3 Energy=-4209.747115308198
C		-0.01100293		0.20056775		0.51667653		0.40337954609414245		0.48437448807279015		-1.451747512671476
C		-1.24468188		-0.00312786		-0.34720876		-1.9532821086247365		0.3637971049949902		0.8454295630099812
O		1.13881417		-0.1520369		-0.17954023		2.4695374012381546		-1.4204110106618248		-0.9271106809898904
H		0.16397687		1.28161143		0.74064065		-0.8593266839180255		-0.010504344650007972		0.45075417800378403
H		-0.06082906		-0.3833724		1.38900909		-0.45749129093703367		-0.869229287593306		2.1880080371114423
H		-1.57090835		-1.03713939		-0.68951898		1.0981283250740952		0.600392842516309		0.04910040774734681
H		-2.16519412		0.27066708		0.27007539		0.6638148088751182		0.15702662649013666		-0.3152935017043761
H		-1.21969153		0.74273479		-1.16068134		-0.08209665966652452		-0.30842089163658476		-0.4504746476723348
H		1.7376921		-0.81537532		0.28099031		-1.282663286713128		1.0029744724674978		-0.3886658942565395
9
Lattice="50.0 0.0 0.0 0.0 50.0 0.0 0.0 0.0 50.0" Properties=species:S:1:pos:R:3:forces:R:3 Energy=-4209.557329494179
C		-0.34263969		0.21811123		0.44411169		1.330976885483009		-2.8869095075882383		-3.69769134772157
C		0.06482822		1.03240348		-0.7792194		-0.4091829372175219		-1.0048106514732715		0.4656362370958933
O		0.28856392		-1.12536946		0.38628464		0.04876091929108716		1.0991273529032703		0.5947292165586541
H		-0.21394466		0.78547523		1.30134876		1.435040844537643		0.8547500175163257		2.742047335612073
H		-1.37627349		0.00086076		0.48413446		-2.247421139482066		0.06786185007440619		-0.407513160005819
H		1.1360059		1.206734		-0.90761372		0.38113004242733683		0.41799852991478487		0.3895608952533887
H		-0.26423845		0.60366854		-1.71215531		-0.18291259556890377		-1.2439797546875708		-0.9128695464840915
H		-0.57711865		1.87471208		-0.82081345		-0.39112803402845225		2.21487611616084		0.2780097810626875
H		0.0245252		-1.5107913		-0.48336577		0.03473601455786793		0.4810859443353292		0.5480905886287829
9
Lattice="50.0 0.0 0.0 0.0 50.0 0.0 0.0 0.0 50.0" Properties=species:S:1:pos:R:3:forces:R:3 Energy=-4209.617792804279
C		0.29745337		-0.35147094		0.22078408		-0.9613979866308663		-0.32502893225464907		-2.044533335224159
C		-1.29331054		-0.53242309		0.19225295		2.7556199318840298		-0.44675909512833345		1.0048599138090935
O		0.84938985		0.83809181		-0.37473634		0.927005265761879		-0.36098092432314594		0.08036131932520456
H		0.70844313		-0.44886745		1.18594557		0.4369557874556335		-0.304201557146813		2.2226424930959823
H		0.64435334		-1.21926054		-0.3534988		0.4783827893567382		-0.5629089357855233		-0.21260492855394963
H		-1.64242844		-0.75443289		1.21882378		-0.28097261745662394		0.43776902737319584		-0.06924093836710954
H		-1.64076827		0.36507555		-0.24631725		-1.2049704638964267		1.4730596949840404		-0.4683900428059923
H		-1.54472585		-1.39609615		-0.42340674		-0.1834675424668066		-0.2734197963468146		-0.4474571496260197
H		1.85818133		0.68130114		-0.35500457		-1.967155164007557		0.36247051862804286		-0.0656373830751126
9
Lattice="50.0 0.0 0.0 0.0 50.0 0.0 0.0 0.0 50.0" Properties=species:S:1:pos:R:3:forces:R:3 Energy=-4209.553640361081
C		0.01613044		0.07400949		0.50402265		-0.05611345146767454		-3.0809517915085407		0.9395439700463226
C		-1.15136412		0.53154588		-0.25845865		-1.7604599674021222		4.119460246098922		-1.3122784351824446
O		1.04123295		-0.56981814		-0.27140423		-0.9171804636670772		0.41856139581030405		0.08322084879568968
H		0.40108953		0.9001601		1.05639884		0.7489617738637976		1.2276646141371912		0.9308859345483901
H		-0.49547801		-0.62742092		1.31171096		1.3040389752728114		0.4684385338108775		-0.8827437255126369
H		-2.06193885		0.45481362		0.34067901		-0.40235742975893		-0.2892140314046297		0.4849122085797739
H		-1.17695273		1.73724764		-0.43641446		0.44441553463241806		-2.3209973690897603		-0.026890653334810912
H		-1.45160896		0.10010626		-1.22006637		0.5330118401478228		-0.5378921538282582		-0.35918865975869974
H		1.78357126		-0.73732529		0.32962862		0.10568318837895377		-0.005069444026106885		0.1425385632404784
9
Lattice="50.0 0.0 0.0 0.0 50.0 0.0 0.0 0.0 50.0" Properties=species:S:1:pos:R:3:forces:R:3 Energy=-4209.669722955729
C		0.11408594		0.23718107		0.54237368		0.33604492642598144		0.49258381465383044		-2.5486074097312494
C		-0.33930346		1.05012718		-0.79067766		1.7059776751772544		0.0243833649920717		1.904452900834723
O		0.25778874		-1.15545018		0.2477004		0.5161428839849141		0.004485752195297539		0.029466384442663973
H		1.04679894		0.69985956		0.97282033		-0.23250063873441335		-0.7378551225963752		-0.3274260231175693
H		-0.64647384		0.31618772		1.24915078		-1.8024547202946783		0.6164052099630143		2.0561355409073605
H		-0.19112046		0.24440575		-1.46859863		-0.035660223286185816		-0.8093072096486053		-1.6281752205234215
H		-1.35104101		1.44081806		-0.82807559		-0.7538180734410713		0.0461581401783882		0.22025216057040733
H		0.3615216		1.87608805		-1.06443259		-0.14413629814269643		-0.21475714755550845		0.15577192816648694
H		-0.62893772		-1.57765256		0.16610837		0.4104045197329574		0.5779031978178867		0.1381297898726605
9
Lattice="50.0 0.0 0.0 0.0 50.0 0.0 0.0 0.0 50.0" Properties=species:S:1:pos:R:3:forces:R:3 Energy=-4209.630230685856
C		-0.31239392		-0.48633984		-0.11945614		1.2015921886599998		-0.24439055085699268		0.2655732524163214
C		-0.97282497		0.79029041		0.4981608		0.08638284283747433		-1.0274337878458002		0.49368548091964487
O		1.16193281		-0.26754267		-0.32658867		-2.480770345090941		-0.08294934030598188		3.851501935582293
H		-0.36275233		-1.24488531		0.7226851		-0.08797183598907679		0.2620455960884927		-0.6337127963185758
H		-0.77841411		-1.00671926		-1.0471059		0.3734509801542259		0.9741853165872297		0.9751988968600765
H		-1.90287153		0.42571236		1.08093936		0.7884807087158308		0.8511853373035371		-0.8741784039932925
H		-0.20286879		1.04337637		1.2715551		-0.40690041470972843		0.22599348526441612		-0.08439476305923885
H		-1.11788857		1.72138097		-0.12814125		-0.14768488324994003		-0.8708281537808978		0.14891808715148788
H		1.23480106		-0.31546396		-1.22854844		0.6734207586721556		-0.0878079024540032		-4.142591689558715
9
Lattice="50.0 0.0 0.0 0.0 50.0 0.0 0.0 0.0 50.0" Properties=species:S:1:pos:R:3:forces:R:3 Energy=-4209.215344946148
C		-0.01438254		-0.27944291		-0.61873122		-5.169710877226479		1.4120383161883978		3.975508553160402
C		-0.20971998		1.23409283		-0.17545621		1.1917953087451054		-0.8916088890780965		-2.275610816958354
O		0.24498275		-0.8755387		0.69169765		0.8385021370236239		-0.89832188506406		-0.2520696131301037
H		-1.14093873		-0.56908533		-0.94505051		2.536547650536415		-0.08917819757402852		-0.2789617577047254
H		0.81607763		-0.35335636		-1.29390801		0.6475762871977813		-0.6574943689138577		-0.9282952396203658
H		-0.43748565		1.87910289		-1.02771897		-1.1775387476205732		0.2900888235309383		-0.5170546485741204
H		-0.80029192		1.40312986		0.71980469		-0.45870274330616745		-0.10315867364529557		0.2930520198793119
H		0.7905415		1.60905351		-0.07840477		1.356656600669311		0.36132555498565		1.1719754975288101
H		-0.44716774		-1.44828976		1.10931389		0.23487433255892134		0.5763092681482895		-1.1885439945808545
9
Lattice="50.0 0.0 0.0 0.0 50.0 0.0 0.0 0.0 50.0" Properties=species:S:1:pos:R:3:forces:R:3 Energy=-4209.379018587471