9
Lattice="50.0 0.0 0.0 0.0 50.0 0.0 0.0 0.0 50.0" Properties=species:S:1:pos:R:3:forces:R:3 Energy=-4209.798890297619
C		-0.14729882		-0.11524554		-0.56409283		-2.5489468467654466		-1.9906834829452986		1.9989582183897683
C		-0.17219798		1.28299546		-0.01191567		2.4484021622424628		0.24105937822976514		0.5300524490320702
O		0.22166685		-1.08215667		0.51248981		-0.9867608390683837		0.6913827421943878		-1.0797732198844736
H		-1.17707346		-0.43798129		-1.03303907		1.1786078122987977		0.2831864915110539		1.1846705763051482
H		0.49090566		-0.32444264		-1.38048114		1.5498003868925165		0.41577930796586066		-1.5276006083600946
H		-0.84730337		1.54767925		0.81736121		-0.5087290052878304		-0.48794461902419806		-0.08839709644549415
H		0.87619785		1.4047231		0.45671732		-0.9486702548448762		0.22877536742060986		-0.4622170298977604
H		-0.23172683		2.03690059		-0.79802953		-0.198601723931082		0.47741826573146373		-0.4392729684335148
H		1.17656357		-0.96591963		0.66630021		0.014898257041779349		0.1410264974942931		-0.1164203207056487
9
Lattice="50.0 0.0 0.0 0.0 50.0 0.0 0.0 0.0 50.0" Properties=species:S:1:pos:R:3:forces:R:3 Energy=-4209.4883745154175
C		0.17512697		0.51590657		0.04767753		-1.4236834078716782		3.354074522600612		-0.47066300081017115
C		-0.80969538		-0.02781764		-0.96865217		-2.3357318468626533		0.46658163171393846		-0.4870972348571725
O		0.5650461		-0.47372839		0.83344694		0.3590998538568577		-3.918340795146424		0.5231275427267725
H		1.0660685		1.07210217		-0.47402558		-1.1173983830207947		-0.48746351420796585		0.22819789765935633
H		-0.37749397		1.29705348		0.67190402		0.36543042396441994		0.09395921525188332		-0.43087795678498686
H		-1.3003944		0.78752022		-1.57922061		0.08251245846345204		-0.13257867538763446		0.7251268765897606
H		-0.2006034		-0.43639828		-1.7112157		1.2423104916964924		-1.7022123460768068		-1.8403618305993836
H		-1.66701721		-0.82002974		-0.73405913		1.774011377784351		1.515528405026149		0.34710786894032575
H		1.07083992		-0.198194		1.57142244		1.0534490319895533		0.8104515562262488		1.4054398371354988
9
Lattice="50.0 0.0 0.0 0.0 50.0 0.0 0.0 0.0 50.0" Properties=species:S:1:pos:R:3:forces:R:3 Energy=-4209.842414514744
C		0.09375133		-0.24693986		0.53511168		0.22668773452948152		-0.5740573417676506		-0.6513749377946932
C		-1.21522804		0.4670015		0.12304969		0.8351041671372808		1.2157356726692166		-1.0437255313577671
O		1.00557018		-0.16371956		-0.56970042		-0.4832391403560745		1.5103159048223211		-0.2150136408029824
H		0.61990107		0.28713983		1.42156396		-0.9608857200447926		-1.1268751091749085		-0.4430916222127178
H		-0.15269712		-1.36910563		0.60740315		0.24083630932288017		1.0772842377959648		1.028852625392773
H		-2.08364352		0.33311841		0.80417671		0.23432797314544682		-0.08027138213798883		-0.008929389721452902
H		-0.9989013		1.60030579		0.0031742		-0.3723340415358654		-1.2863220178781283		0.2233830956864754
H		-1.45586434		0.10631759		-0.93078786		-0.04396421788418675		0.17974530505468736		0.9252159836770544
H		1.47204635		-0.9827692		-0.70517474		0.32346693568583		-0.9155552693835136		0.18468341713331057
9
Lattice="50.0 0.0 0.0 0.0 50.0 0.0 0.0 0.0 50.0" Properties=species:S:1:pos:R:3:forces:R:3 Energy=-4209.517416888566
C		-0.56471328		0.01490686		0.05721363		-1.8364992623788532		-0.03157597455445618		0.15287583760960363
C		0.23123811		1.02148512		-0.74020439		0.9124435146967373		1.6418728752512428		0.5255750272108887
O		0.24312608		-0.9941817		0.61098575		-0.7877432134962494		-0.7168665393227751		-0.1975985823369116
H		-0.92967083		0.69532121		0.82061434		-0.6907957079295195		0.23279600706109546		1.3385326890724403
H		-1.60783817		-0.44493888		-0.3215156		2.2133682670237755		0.5906274329036307		-0.09180524790020138
H		-0.33682705		1.99510726		-1.10441897		0.8571543588900508		-1.7328362925671623		0.7149668540698821
H		1.08392763		1.34827697		0.06071441		-1.522603103799348		-0.28734602214220245		-1.7932444632681526
H		0.74217722		0.55000995		-1.58478198		0.32832066415998157		-0.007283163814349531		-0.5922256820264732
H		1.16173197		-0.71400347		0.56956455		0.5263545342554872		0.31061167718497706		-0.057076381009013244
9
Lattice="50.0 0.0 0.0 0.0 50.0 0.0 0.0 0.0 50.0" Properties=species:S:1:pos:R:3:forces:R:3 Energy=-4209.475657189773
C		-0.50733001		0.24951376		-0.33167766		5.207619118816559		1.004468849024202		0.19977903205075254
C		-0.48036563		0.05045452		1.16892505		0.5360210592420844		0.3690007606040776		1.357948579988233
O		0.8155495		-0.31151687		-0.8041543		-2.192981064770466		-1.5714142110233813		-0.7870612541041082
H		-1.22589808		-0.31876178		-0.89785355		-0.9847097158415914		-0.13798688796112676		-0.3801828994591687
H		-0.31321128		1.34758265		-0.62684399		-1.6050642430444806		-0.9075737939611656		0.33021983519225023
H		-1.44278197		0.35783908		1.62960543		-0.009746434871636117		-0.41491238341510617		0.3068478393243401
H		-0.04277295		-0.92307796		1.5431843		-1.2348883340473549		-0.17572122013601799		-0.8080786851547399
H		0.32312117		0.63776247		1.712947		-0.5516477612204548		0.5982200032677099		-0.8185994334426677
H		1.52450514		0.26752861		-0.57311609		0.8353974271594025		1.2359188836008084		0.5991269856051086
9
Lattice="50.0 0.0 0.0 0.0 50.0 0.0 0.0 0.0 50.0" Properties=species:S:1:pos:R:3:forces:R:3 Energy=-4209.739027433475
C		-0.38843848		0.33344189		-0.26035641		2.295462715541615		-1.2838914512525563		-0.9572647326736268
C		-0.52315408		0.00214543		1.21343014		-0.23680867628190208		0.12384396959459705		-2.2921823479120826
O		0.79887033		-0.31643587		-0.91881067		-1.0904499312877962		0.5989146124872122		1.1021794579976105
H		-1.18726616		-0.07678831		-0.86854098		-0.9211041212977922		-0.06125226385601926		-0.1928556684073283
H		-0.30387436		1.41767189		-0.4671958		-0.22005979063480188		0.27139397277474475		0.29071442434264
H		-1.33773662		0.52262969		1.59246753		-2.050049071330223		1.9824789386160655		1.0462292715781978
H		-0.83078838		-0.96874979		1.48850055		0.026071088503567912		-2.2868009776551865		-0.14210368685838387
H		0.31410975		0.2737405		1.77235015		2.1019119236941597		0.6740533014622873		1.2925821397601411
H		1.52642159		-0.14598937		-0.28987274		0.09502581167111047		-0.01874015359320729		-0.14729875498304304
9
Lattice="50.0 0.0 0.0 0.0 50.0 0.0 0.0 0.0 50.0" Properties=species:S:1:pos:R:3:forces:R:3 Energy=-4209.795942362447
C		0.19684966		-0.36020626		-0.36820657		1.8722114733701702		-2.0489989813930407		1.557022718406994
C		-1.22799874		0.00206561		-0.38251572		-1.1770720409818254		-0.5979352793079538		0.23423217384311237
O		0.96877649		0.29331315		0.67255629		-0.16995788679928284		0.44853166504286335		-0.5102152571586684
H		0.18317492		-1.43844097		0.03754774		0.4216192601756384		0.7271787197254275		-0.7784935671698912
H		0.70678573		-0.41610271		-1.40078185		-0.3994892099598917		0.4840878100746612		0.9144535516956367
H		-1.32560759		0.98432902		-0.82391331		-0.5608233083548303		1.08950325111819		-0.13603583206785144
H		-1.75358618		-0.72194339		-1.08979003		0.01756423386922279		0.5757425970201494		0.8517453749856219
H		-1.60025156		-0.03145007		0.71214194		0.03442408832707861		0.040794613377160296		-1.4928325064352617
H		0.69801369		1.23387606		0.83473533		-0.038476609646279886		-0.7189043442353946		-0.63987660467763
9
Lattice="50.0 0.0 0.0 0.0 50.0 0.0 0.0 0.0 50.0" Properties=species:S:1:pos:R:3:forces:R:3 Energy=-4209.4554531693075
C		-0.47143723		0.01337344		-0.27876571		-0.6427036354046501		1.4802251536974542		-1.218116925536904
C		0.43883271		1.20681396		-0.00293356		1.8619165193584368		3.0521997109352945		1.3551535852061156
O		-0.06175746		-1.16717938		0.25983487		0.4820513421356652		-1.5733543140173558		0.770289228528908
H		-1.56311075		0.06398235		0.08888244		0.9818885472296898		0.904579950063575		-0.7990011998934463
H		-0.39065633		0.06158531		-1.41986555		-0.8165902706188299		-0.6599337801341699		0.36320909371093546
H		1.58941057		1.1449715		-0.14162627		-1.131306611094327		-1.2968999989215568		-0.15764626234259482
H		0.34813389		2.07398993		-0.75466453		-0.7492659353631579		-0.7726133000631568		0.822788428915597
H		0.50300746		1.70172301		1.05970217		-0.8246219853961864		-0.7758376690666869		-1.2433466462547522
H		0.8810431		-1.06054575		0.39987076		0.838632029153359		-0.3583658039154602		0.10667064624407858
9
Lattice="50.0 0.0 0.0 0.0 50.0 0.0 0.0 0.0 50.0" Properties=species:S:1:pos:R:3:forces:R:3 Energy=-4209.801357467046
C		0.22881157		0.41291799		0.21119425		-1.1894520567815647		0.7390035315169519		-2.5346567584561996
C		-1.13429528		-0.06438629		0.71723679		-0.07716168433371041		0.1490020079573976		1.876361850874204
O		0.8861439		-0.32506302		-0.80654403		-0.25920874374754566		-1.773150675303152		-1.0441594307206754
H		-0.01990534		1.34239988		-0.38676835		0.22285041454161117		0.529007604145257		1.3284528335479129
H		0.97154169		0.54887144		1.0057689		0.11355338645817153		0.30594049703250403		0.28772073471123677
H		-1.56507055		0.78819024		1.35416546		0.24562221209666715		-0.6306440304760033		-0.7522646129346182
H		-1.85494436		-0.2715564		-0.10622936		0.15806962018270174		-0.09356105422237429		0.16762738750722841
H		-1.09307217		-0.91073608		1.48099984		0.011986945554412435		0.27404035779639674		-0.9750309524041323
H		0.28419758		-0.49195897		-1.60863281		0.773739906029257		0.5003617615530226		1.6459488450309188
9
Lattice="50.0 0.0 0.0 0.0 50.0 0.0 0.0 0.0 50.0" Properties=species:S:1:pos:R:3:forces:R:3 Energy=-4209.548246441661
C		0.16332272		-0.40373963		-0.30479973		2.6250322159101276		0.9913973093287065		1.3557909616701174
C		-1.22914468		-0.02845595		-0.40795419		-0.948424971607015		2.5364712373516225		-0.4045019868731845
O		0.96227887		0.31011065		0.70223339		-1.0616305906568733		-1.62264755449887		0.6350146486734872
H		0.36189085		-1.45620776		-0.17312577		0.1978989900257133		-0.9939470208729628		0.17088332965709938
H		0.60892474		-0.00862352		-1.18785777		0.7607493560821121		-0.5752563499976727		-1.9421966432470414
H		-1.18967812		0.96694211		-0.9213821		-0.34363585128406227		0.31886769499871714		0.6693232430483151
H		-1.72190086		-0.5328127		-1.21401899		-0.9535037230264244		-1.386349653563231		-0.42837092555255984
H		-1.76804839		0.09833776		0.53331751		-0.47746197448454175		-0.3773708325523199		0.310735295823094
H		1.13364492		1.15844409		0.30949702		0.20097654904096385		1.108835118383948		-0.36667797462138985
9
Lattice="50.0 0.0 0.0 0.0 50.0 0.0 0.0 0.0 50.0" Properties=species:S:1:pos:R:3:forces:R:3 Energy=-4209.831357772437
C		0.05207265		0.01478155		0.54658935		0.6073281875002827		0.5698083367478481		1.5262692397413402
C		-1.19231157		0.45795607		-0.18041158		0.4147559060790871		-0.8378576643150051		0.831378998667602
O		1.01295527		-0.47769034		-0.35319357		0.21669550219935993		-0.675536622275566		0.17987185475036366
H		0.36948354		0.85764837		1.26408153		0.35999002117983725		-0.3893846204233285		-0.9080080018564484
H		-0.14347023		-0.78256135		1.32821531		-0.2274428675164814		0.04035875997587935		-0.7214756530458775
H		-1.85031536		0.78704207		0.61003459		-1.19589143597326		0.04557604243151465		0.5869946184581029
H		-0.98972113		1.39184278		-0.72692122		-0.03736301346197831		-0.3219883457022963		-0.933118886187987
H		-1.55764213		-0.48663972		-0.66033766		-0.31239895380936616		1.0167588247926007		-0.5577894066705952
H		1.67885223		0.18053875		-0.57210784		0.1743266538025188		0.5522652887683527		-0.004122712434438234
9
Lattice="50.0 0.0 0.0 0.0 50.0 0.0 0.0 0.0 50.0" Properties=species:S:1:pos:R:3:forces:R:3 Energy=-4209.179466785247
C		-0.08643683		-0.56252045		0.34007985		0.10776002263696871		1.999778297441636		-1.9941177053856654
C		-0.8793264		0.06069954		-0.9500122		-2.450542554169659		-2.7551170241133205		4.039611913268665
O		0.85821247		0.47512858		0.5567043		2.658301364714699		-0.18765160142174128		1.3043896223166216
H		-0.83107377		-0.72164907		1.16423192		0.3176652414905112		0.29939457132742364		0.11652146790247736
H		0.38151317		-1.56053995		0.16865927		-0.06892875502600801		0.10632699260076092		-0.38561872568019373
H		-0.6801884		0.98700789		-1.38044915		1.6020176915328839		2.2850373037574596		-0.42516794812700676
H		-0.87739536		-0.67416271		-1.70298493		-0.326702514698973		-1.3745422224288126		-1.6518347171424599
H		-1.94825272		0.20732587		-0.55485197		0.7132207150954487		-0.4036883870011851		-0.7613329964908588
H		1.83980575		0.19836951		0.73663058		-2.5527911087317467		0.030462069837779944		-0.24245091066158006
9
Lattice="50.0 0.0 0.0 0.0 50.0 0.0 0.0 0.0 50.0" Properties=species:S:1:pos:R:3:forces:R:3 Energy=-4209.647032987396
C		0.12914935		0.34947547		0.3503568		0.6408829858617344		-1.9006909655903963		-0.9103105789685952
C		-1.34370146		0.2533859		-0.04943227		1.1679150572119925		-1.506362268129201		0.3340931506238319
O		1.11823283		-0.53947962		-0.22310415		-0.3542782641717341		0.13601500613256137		-0.47437819339973547
H		0.36640111		1.38998012		0.217909		0.7909537499649818		1.272111170967109		-0.00029716809886769474
H		0.33546011		0.0291522		1.3406865		-0.42524518406479866		0.2867403730907293		2.0956329813372916
H		-1.91597687		0.42151508		0.87281305		-0.5796008972094973		0.3966448499978277		-0.1682403899136312
H		-1.41763068		0.97845062		-0.82917358		-1.0802046509883845		1.0407569871148994		-0.8570598965613399
H		-1.6182224		-0.73566114		-0.47800319		0.04134626926306662		-0.03249313846021915		0.258901394080314
H		0.97156895		-0.70532792		-1.16866061		-0.20176896302323596		0.3072780362987521		-0.2783412990992682
9
Lattice="50.0 0.0 0.0 0.0 50.0 0.0 0.0 0.0 50.0" Properties=species:S:1:pos:R:3:forces:R:3 Energy=-4209.378084291473
C		-0.04322571		0.27918853		-0.46198868		-3.336926190372441		1.8042546467464289		2.3558603961418667
C		-1.25717597		-0.09372775		0.57418331		1.2517533821335176		-1.7037853469669888		-2.020197587061911
O		1.19008258		-0.23293584		-0.09747951		0.8989210549356649		0.5830547114556554		-0.62177773562517
H		-0.47588043		0.02733977		-1.50404835		0.9078310585395762		0.41900367696939067		0.7887917607715584
H		-0.10727364		1.40485618		-0.14404356		0.45972727647831485		-0.8656066547161421		-1.6654763732442783
H		-1.1768238		0.42932045		1.5442422		0.4421572319160358		-0.48521472457313586		0.26296898206381153
H		-2.14673329		0.38629146		0.0914875		-0.03358765705935376		-0.7172684027407803		0.07537687596831869
H		-1.27055126		-1.27829598		0.59625243		-0.5607703436305121		2.0286112134970438		0.4591481097890006
H		1.78135622		0.51649684		-0.3734831		-0.029105864362864452		-1.0630491196714718		0.36530557119680424
9
Lattice="50.0 0.0 0.0 0.0 50.0 0.0 0.0 0.0 50.0" Properties=species:S:1:pos:R:3:forces:R:3 Energy=-4209.402212078322
C		0.20692021		0.53340684		-0.02611756		-1.0411852814730012		0.13581595132883806		1.3719591379660299
C		-0.95029362		0.04671307		-0.94103552		4.214654619290726		-2.466623312959416		-1.4422247637714745
O		0.64218817		-0.52039092		0.82881358		-0.9758998309932597		-1.449876623773552		-1.3197392108004777
H		1.11802324		0.99141773		-0.41815087		0.07902871657695117		0.5017344220879203		-1.1452239408729123
H		-0.31999651		1.25560103		0.60602136		0.18596902011648955		1.067930924591718		0.43240904869427665
H		-1.00371586		0.5760347		-1.96478001		-0.7155031347591175		-0.3861596857771116		1.601164702361052
H		-0.47559881		-1.01075589		-1.18289294		-0.9373717992845351		1.287641148046021		-0.29155347813554955
H		-1.73279221		-0.28572809		-0.27106449		-1.3254007798756349		0.556665783184117		-0.0911923997599859
H		1.07750518		-0.18047333		1.59948566		0.5157084704013818		0.7528713418494029		0.8844008014749163
9
Lattice="50.0 0.0 0.0 0.0 50.0 0.0 0.0 0.0 50.0" Properties=species:S:1:pos:R:3:forces:R:3 Energy=-4209.658518211851
C		-0.35552861		0.34001772		-0.28204417		0.31667428692514016		-1.5604064958041024		0.5789557560140665
C		-0.59007578		-0.03555746		1.23722079		2.201428989721249		-1.511508485294538		-1.1407960899199272
O		0.79824776		-0.32253508		-0.9219645		-0.3623327589227535		0.7300715706923766		1.198928371559179
H		-1.31951321		0.27138397		-0.8816038		1.033570393933821		-0.35301312716940814		0.07853074532423707
H		-0.05271863		1.3560677		-0.21443201		-0.17223691260683022		1.9745836979924374		-0.22036796305503276
H		-1.41664133		0.53880974		1.64020626		-0.9509768428778937		-0.1192575844230953		0.3346011491787227
H		-0.52534961		-1.19194783		1.45792118		-0.6713172877857941		1.8651536924555159		-0.36016650169814735
H		0.31203656		0.40210865		1.73038657		-0.11038887273532712		-0.2715827431659791		0.24578948806579967
H		1.59822209		0.11382004		-0.47976573		-1.2844209956516115		-0.7540404738611444		-0.7154749554688977
9
Lattice="50.0 0.0 0.0 0.0 50.0 0.0 0.0 0.0 50.0" Properties=species:S:1:pos:R:3:forces:R:3 Energy=-4209.505149875538
C		0.44403844		-0.30908695		-0.14155085		-2.6403169097511787		3.2167533446598933		-0.3273411252924732
C		0.39153614		1.27285365		-0.08614472		1.0427985458380775		-1.8161712983414795		0.2364202340221951
O		-0.7519578		-0.89725335		0.2633477		2.1829436838695178		-0.4933369936024574		3.950305006272338
H		0.65181758		-0.54665811		-1.12406695		0.6187196655715861		-0.9679328565925212		-3.152889199986123
H		1.32978541		-0.54276518		0.36958975		1.3722460730744712		-1.211948643458417		1.8148549449649585
H		1.20790641		1.61518713		-0.73155888		0.694710418121369		0.36677649929303385		0.12211048044752508
H		-0.47964948		1.75025671		-0.52521798		-0.9426268769560673		0.04506583272793872		0.20304417874980116
H		0.60145719		1.45266485		0.98023696		-0.3234635932517712		0.9994958727872413		0.01803104335209542
H		-1.33298393		-0.97208243		-0.43595702		-2.005010955093942		-0.13870175747323243		-2.864535562530317
9
Lattice="50.0 0.0 0.0 0.0 50.0 0.0 0.0 0.0 50.0" Properties=species:S:1:pos:R:3:forces:R:3 Energy=-4209.666141400769
C		-0.15271458		-0.0320304		-0.53031486		-0.6792764460330413		1.343295554762252		-0.3193943597622753
C		0.11612774		1.27779186		0.18679858		2.102913471204394		-1.267680851755127		0.7835088637642439
O		0.06933249		-1.11392579		0.29832355		0.08135021700807782		-1.681073250426431		1.0582669192861807
H		-1.23371508		-0.12226502		-0.68225268		-0.538311809279869		0.7524978634098671		-1.3819565639244586
H		0.45773264		-0.07554459		-1.44949845		-0.09088489582656682		-0.1291526290551965		-0.5434611117689525
H		1.15561421		1.13451079		0.61042241		-0.3960223345098726		0.03570562896732445		0.038447401914811316
H		0.28374503		2.16373428		-0.42589563		-0.8313153381542957		0.5782292136937859		-0.32833202843578185
H		-0.52569585		1.28858887		1.07315108		-0.4291308922134295		0.8073481319135886		0.16321650583485028
H		-0.80323817		-1.5533744		0.23204421		0.7806780278046028		-0.43916961008800104		0.5297043216693197
9
Lattice="50.0 0.0 0.0 0.0 50.0 0.0 0.0 0.0 50.0" Properties=species:S:1:pos:R:3:forces:R:3 Energy=-4209.451260422861
C		-0.30676785		0.18091461		0.4152807		0.1970996854870735		1.0905585346836792		1.8104217975395418
C		0.06068266		1.06386165		-0.83408872		-5.6258768673481265		-1.1156203109455831		1.4353120959170387
O		0.23465015		-1.13792438		0.4441368		1.4585480804297826		0.8028962154353796		-2.818733314446108
H		-0.15514905		0.65159472		1.46060935		0.37423557798300655		-0.1296639700441462		-1.1557138359233732
H		-1.36527956		0.01944644		0.40573709		-1.7236737037925232		0.3314875947197609		-0.18217438044044829
H		1.05379244		1.13697825		-0.9655445		4.4183031101183765		0.3366096435157486		-0.7691110462341759
H		-0.4725721		0.44803881		-1.61733128		0.7384843229524483		0.7081415008774773		-0.2639203930631626
H		-0.42789704		2.09806495		-0.8221038		0.45101391084119197		-1.0122092063957469		0.1395306811198404
H		0.57380098		-1.12579506		-0.52076011		-0.28813411667122935		-1.0122000018465693		1.8043883955308475
9
Lattice="50.0 0.0 0.0 0.0 50.0 0.0 0.0 0.0 50.0" Properties=species:S:1:pos:R:3:forces:R:3 Energy=-4209.731737126527
C		-0.29376757		-0.20132971		-0.40779038		-0.6616295254874074		-0.4800683017195494		-1.2376765411172292
C		-0.92128671		0.19647111		0.88363364		-2.25428624192874		2.074066979724501		-1.678284014915308
O		1.13788557		-0.04525437		-0.38655708		-1.0641280573856857		-0.4296407419625683		0.6891603834996544
H		-0.57660767		-1.28615216		-0.67026655		0.2073942281223073		0.930953914514942		-0.037759837517863756
H		-0.7570026		0.52706622		-1.19368888		0.5656105481022408		-1.1598069292498432		0.6051027949038653
H		-2.05342424		0.33616306		0.81875616		0.7451492393100255		-0.44061960940481554		-0.3810689015950902
H		-0.80510263		-0.44272026		1.68974471		0.9260900044724265		-1.5658876762842036		2.2678085988456878
H		-0.6116232		1.2295516		1.03502202		0.5466549360673904		0.47248375319721164		0.8312681841230338
H		1.21938944		0.41082614		-1.21379506		0.9891449201495057		0.5985186111843259		-1.0585506662267503
9
Lattice="50.0 0.0 0.0 0.0 50.0 0.0 0.0 0.0 50.0" Properties=species:S:1:pos:R:3:forces:R:3 Energy=-4209.587856930737
C		-0.39536881		0.15971739		0.265691		-0.26966290046460767		2.847564687839643		1.5591281947537907
C		-0.42644696		0.32926838		-1.2279159		2.90851968075267		-0.5656008807545012		-0.19343612064820365
O		0.77268513		-0.41741741		0.84627091		-0.863615952412722		-1.3692084175796775		1.1457844927756213
H		-0.55163743		1.2261441		0.68504885		0.036019766346798876		-0.8983700675365703		0.15211664227967064
H		-1.29833465		-0.41362187		0.51855236		-0.39388991300235504		-0.20909624696716309		0.2663691116767774
H		-1.2036402		0.94086719		-1.64967601		-1.1957332102871177		0.15479989692009552		-0.07349832518309034
H		0.52008896		0.69532999		-1.73704577		-0.3236177051729177		0.1273613929319992		0.8820942134418986
H		-0.39578177		-0.70895776		-1.46730173		-0.640189662193793		-1.4348433323957932		-1.6503893972333277
H		0.45603003		-0.94223929		1.68320979		0.7421698964340443		1.3473929675419676		-2.088168914707262
9
Lattice="50.0 0.0 0.0 0.0 50.0 0.0 0.0 0.0 50.0" Properties=species:S:1:pos:R:3:forces:R:3 Energy=-4209.7298319604715
C		-0.27681695		-0.48234509		-0.16351578		-0.2959853914314675		3.5362852070171464		-1.0286132556920933
C		-0.86267191		0.67233859		0.64448877		-1.1978465542094683		0.32556274468488705		1.1195185660774505
O		1.0508823		-0.24637909		-0.43387362		2.109072291623391		-1.8874712789329982		0.7132049799443407
H		-0.31985405		-1.33043786		0.46135532		-0.2422506731504206		-1.9160497072013678		0.7398651595952747
H		-0.88926233		-0.56314737		-1.09115871		-0.13684254138348328		-0.5306026136781655		-0.02504640106523316
H		-1.96825494		0.6311738		0.61394818		-0.2205523111488968		-0.045517215592077956		0.15670426158067108
H		-0.58264925		0.70334058		1.71049715		0.11665675934876926		-0.7928341519444582		0.42087667417187496
H		-0.62870721		1.72972258		0.46426904		0.40005994343096496		0.2496930910921612		-1.3462257895685985
H		1.28494734		0.47473445		-1.00319207		-0.5323116259235139		1.0609339245548732		-0.7502841436216244
9
Lattice="50.0 0.0 0.0 0.0 50.0 0.0 0.0 0.0 50.0" Properties=species:S:1:pos:R:3:forces:R:3 Energy=-4209.271802775905
C		-0.11985849		-0.45706087		0.29021524		5.644216340230765		-2.4294062353106556		-1.27799452339759
C		-1.10381447		0.534105		0.26175056		-4.17581671823371		1.188537669667174		0.3445591858373186
O		1.09300749		-0.01906781		-0.48670261		-0.7403688386969202		0.9186531915354922		0.621933955850877
H		0.12549744		-0.81275685		1.31667603		0.24304432126219147		-0.10961065124228961		-0.049523714165391246
H		-0.43211239		-1.28015574		-0.37668004		-0.6201583520346627		-0.6721919256459156		0.6783458095469177
H		-1.95687532		-0.12698744		0.68508167		0.25224413961004083		1.5904505556962696		0.002675901285495258
H		-1.00999307		1.56854261		0.69893193		0.20523311310394549		-0.8676008537198086		0.12141777384433305
H		-1.39264738		0.59538697		-0.77898325		-0.373604680698873		0.8011290448374063		-0.9273515933524438
H		1.89682687		-0.56092387		-0.39668988		-0.4347893245427776		-0.41996079581767315		0.4859372045504834
9
Lattice="50.0 0.0 0.0 0.0 50.0 0.0 0.0 0.0 50.0" Properties=species:S:1:pos:R:3:forces:R:3 Energy=-4209.43993274323
C		-0.12391654		0.24248832		-0.53370511		1.948070791128345		-0.5857350350385208		0.3500192832718175
C		-1.23675744		-0.08723224		0.55098222		-0.1866221317315992		1.5312712180215196		0.6089087474336443
O		1.22606267		-0.18294607		-0.07397582		-0.27649920655631305		0.6293259287493593		0.5585894825401717
H		-0.1623876		-0.29204978		-1.54135473		-0.7001957123664659		-0.29867944470500574		1.1271496001442383
H		0.01395808		1.27701694		-0.97584823		-0.8751716725514735		0.03650987002395894		1.0901821251865842
H		-1.13453579		0.40057608		1.57855725		1.1009991673983182		0.004885558730804777		-0.7909916480250034
H		-2.2413265		0.38641248		0.39500765		0.11440426732544333		-0.5335855560985179		-0.9239392252886158
H		-1.37281935		-1.13865918		0.88505615		0.21773489634755386		-0.13344472576332744		-0.8559479973050991
H		1.64828965		0.41912825		0.62695153		-1.342720347571746		-0.6505477624982083		-1.1639703679577378
9
Lattice="50.0 0.0 0.0 0.0 50.0 0.0 0.0 0.0 50.0" Properties=species:S:1:pos:R:3:forces:R:3 Energy=-4209.880311477853
C		0.52560896		0.05689769		-0.25527165		-0.6451296768887267		-1.6466308558451221		-0.7654552975487977
C		-0.77883472		0.57739603		-0.84317219		-0.6002908211444187		0.709487781894341		0.761106585149915
O		0.25830765		-0.61409276		0.99440687		0.5866505020162232		-0.19954609010787822		-1.3187449138010479
H		0.84067123		-0.75340687		-0.99416709		0.2546078061323721		0.6143789235923824		0.6652029474508117
H		1.35144329		0.81228498		-0.18228725		-0.28558728476247025		-0.09429849801989318		0.00971069653823708
H		-1.48208248		-0.20185332		-1.09564962		-0.4508698776442845		-1.4061869997028198		0.40830218013196984
H		-1.39454634		1.23759329		-0.1614199		0.700566105482255		0.04731657640114152		-0.44161786590305385
H		-0.70245769		0.96840852		-1.84800794		0.5718661962648212		1.201734782039159		-0.7101663474303609
H		0.30323118		0.12489331		1.58609958		-0.13181294945577104		0.7737443797486896		1.391662015412326
9
Lattice="50.0 0.0 0.0 0.0 50.0 0.0 0.0 0.0 50.0" Properties=species:S:1:pos:R:3:forces:R:3 Energy=-4209.6580103433225
C		-0.56675827		0.01641748		0.10908129		0.44894967498847604		-1.5301121133119546		-0.6847973757674123
C		0.256906		1.32643987		0.05058809		1.8909146030784174		-0.9961319957282988		1.4030428491167035
O		0.22890709		-1.24496557		-0.09138848		0.9783735407292224		2.3630857101359655		-1.4623608206718042
H		-1.05533659		-0.18108846		1.07571822		-0.14439402551966907		0.24892823933535935		0.228352009580503
H		-1.36170413		0.00294646		-0.69154832		0.16122631775205454		0.2708578977737591		0.41862983857541797
H		1.36978273		0.96375541		-0.09783515		-1.5052572080072653		0.8445412468812498		0.5499484677449085
H		0.023888		1.89310944		-0.82312843		-0.3824116344896452		0.785953931411425		-1.2270580909106565
H		0.19754808		2.06797265		0.94006999		0.06902491428277953		-1.2389443520668024		-0.8767933187127283
H		0.88353321		-0.98800623		-0.85526769		-1.5164261828143706		-0.7481786672748278		1.6510364410450684
9
Lattice="50.0 0.0 0.0 0.0 50.0 0.0 0.0 0.0 50.0" Properties=species:S:1:pos:R:3:forces:R:3 Energy=-4209.526092695246
C		0.04929856		0.51040633		0.24986728		-0.1781488557040304		-1.1874470077227226		-0.7173658475491128
C		-1.29046666		-0.05639519		-0.2695711		-0.18049287899850783		-2.223217905974738		1.8495672539520394
O		1.18023357		-0.35488698		0.00833164		-0.06747495047657255		0.5062281961249592		0.36559980823811267
H		0.22147383		1.48707387		-0.18709571		0.6255617823563477		0.6364200650621622		-1.1789828334002066
H		-0.08482889		0.88444812		1.30288656		0.18790166691140966		-0.9935771419777982		0.2591703314668995
H		-1.70743964		-0.65664114		0.60184835		0.22241718366551486		0.11686974953141505		-0.35796584311376567
H		-2.07138391		0.70919285		-0.31696913		-0.2177927461678041		0.34440193717036277		-0.9063108166854623
H		-1.28196855		-0.91196464		-1.05553391		0.21472166633242162		1.8289816139597557		0.27940213624750154
H		0.97874527		-1.29039443		-0.24259501		-0.6066929193408415		0.9713404938266038		0.40688586226605655
9
Lattice="50.0 0.0 0.0 0.0 50.0 0.0 0.0 0.0 50.0" Properties=species:S:1:pos:R:3:forces:R:3 Energy=-4209.552325589669
C		-0.27873733		-0.47092573		0.09889811		1.5768255603426824		2.355110868159673		2.780653631699839
C		-0.95446948		0.93592353		0.0917744		2.25151958070303		-0.3784322353432402		1.7278586369225193
O		1.12675955		-0.38857122		-0.18159275		-0.21252465871447349		-0.8719980057015139		0.09506077867357285
H		-0.45750638		-0.94807275		1.15290321		0.03280557891163292		0.3246625500597309		-1.5016274788854842
H		-0.76327779		-0.90801143		-0.68783264		-1.7359633710285471		-2.6220706136456897		-2.3058478124288135
H		-1.72834656		0.83345706		0.84143903		-0.4572362375073082		0.6210229111705449		0.9781845646497384
H		-0.17845212		1.73857143		0.29255154		-0.7066326232991638		-0.5184543056918017		0.3717752379832793
H		-1.48754874		1.2478882		-0.76211599		-0.6096568355980893		0.11609003679856666		-2.1366039723886376
H		1.42367514		-1.33835363		-0.22652716		-0.1391369423877016		0.9740687941937303		-0.009453586226013774
9
Lattice="50.0 0.0 0.0 0.0 50.0 0.0 0.0 0.0 50.0" Properties=species:S:1:pos:R:3:forces:R:3 Energy=-4209.819659632593
C		0.21868929		-0.15197024		-0.55507846		0.04255875007344928		0.24839746080680553		0.18209709308059388
C		-0.45981499		1.16001221		-0.19772007		0.7374010657849889		-1.0220777686656892		0.9630682266411311
O		0.25498518		-0.96772793		0.6413233		0.9001301933119887		0.33105343824654065		-0.6109127166291752
H		-0.41556301		-0.73945376		-1.21375548		-0.2147261400518543		-0.18348271197522775		-1.1060444430550762
H		1.2082244		0.11130848		-1.11366645		-0.7422416816332171		-0.854177381428942		1.1314332636341282
H		-0.51793056		1.90328677		-0.95525909		-0.19129459743563326		0.90733514416936		-1.428609590031814
H		-1.46345459		0.91808566		0.17770546		-0.3069777828761378		0.2943904333206215		0.3300558502351142
H		0.2069176		1.59262317		0.57340448		-0.350506198781106		0.24110246991809375		0.41928732106583544
H		-0.19338127		-0.43816657		1.32202413		0.12565634018545913		0.03745891560843761		0.11962499505926241
9
Lattice="50.0 0.0 0.0 0.0 50.0 0.0 0.0 0.0 50.0" Properties=species:S:1:pos:R:3:forces:R:3 Energy=-4209.7016993208845