9
Lattice="50.0 0.0 0.0 0.0 50.0 0.0 0.0 0.0 50.0" Properties=species:S:1:pos:R:3:forces:R:3 Energy=-4209.465405665804
C		0.4016246		0.38569419		0.0794417		-4.159509239570635		0.10729388164090788		3.6177761147880725
C		-0.83259828		0.63111076		-0.91769057		3.388237901071096		-2.415081282843072		-0.2637452495184761
O		0.42898823		-0.92815605		0.69153642		-0.9477661007209115		-0.1664203060134024		1.1653012223558679
H		1.38869085		0.59405355		-0.20570216		1.9275714887789055		0.4877803769567498		-1.311321213490037
H		0.17108235		1.11935194		0.98236677		0.5833694144778168		-0.6211713666648226		-1.409256434032204
H		-0.52877617		0.17079218		-1.93423021		-0.6320390081860021		0.9434548235834886		0.9163576078238378
H		-1.61821698		-0.01452388		-0.50901661		-0.6160664414156288		0.3312326955562227		0.11737599973618273
H		-0.95146534		1.6993472		-0.8827139		-0.7880903638398133		0.9205409982919606		-0.5317147700447187
H		-0.13627129		-0.95389655		1.56093158		1.244292349405172		0.41237023091402947		-2.3007732776185246
9
Lattice="50.0 0.0 0.0 0.0 50.0 0.0 0.0 0.0 50.0" Properties=species:S:1:pos:R:3:forces:R:3 Energy=-4209.431641764862
C		0.40890702		-0.25402506		-0.12718178		0.6270549247835533		-0.16237390391963205		4.0696278452926755
C		0.27613833		1.11097546		-0.72790149		2.413917807258199		2.317980539530257		1.9196468861576215
O		-0.63286147		-0.84484529		0.72375171		0.36308645209200496		0.013478082521182705		-1.5730904674149522
H		0.57688331		-1.09326339		-0.72968312		0.423439909718554		-1.2877901177609232		-2.2062841580131494
H		1.3592334		-0.230567		0.53370919		-0.6363137242370267		0.010941277914600254		-0.7140751440850293
H		0.8061408		1.96221375		-0.02121482		-0.9745092755806312		-1.8623375632057342		-1.1933156534433444
H		0.82430191		1.27174885		-1.66755267		-0.12192597808747364		-0.31747266586665596		-0.4211744593354919
H		-0.70094244		1.51253219		-0.77014514		-1.97268771512804		0.2434891735244002		-0.5841924760093058
H		-0.98402417		-0.22512151		1.35575707		-0.12206245224120178		1.0440851772625053		0.7028576268509762
9
Lattice="50.0 0.0 0.0 0.0 50.0 0.0 0.0 0.0 50.0" Properties=species:S:1:pos:R:3:forces:R:3 Energy=-4209.204507968826
C		0.32429907		0.27747196		0.41837602		2.0122586376852047		-1.5033519177495656		-2.2988478299123467
C		-1.10118136		0.08898512		0.62538935		-2.00565393656275		1.3869956175116607		0.8338169700701659
O		0.72430152		-0.38004588		-0.91543168		0.08601260398787278		1.8114216481217158		0.8306977077622727
H		0.6713106		1.32132158		0.16418901		-0.30977010371100777		-0.3790918775602803		1.5733847558783232
H		0.7762803		-0.30029785		1.24919731		1.1679017388978192		0.5222512079385907		-0.10357760918803223
H		-1.54650433		-0.02973139		1.61761578		0.7464569537800558		0.2123999602130452		1.1682448783205126
H		-1.59167529		0.97503398		0.28678535		-1.1719396563512863		0.997277576435441		-0.8621379280718751
H		-1.57794039		-0.7461328		0.18394112		-0.16068139815632848		-1.5276313073313745		-1.5220596754434328
H		1.02783361		0.44417933		-1.40834505		-0.3645848395695799		-1.5202708561571705		0.3804787305844128
9
Lattice="50.0 0.0 0.0 0.0 50.0 0.0 0.0 0.0 50.0" Properties=species:S:1:pos:R:3:forces:R:3 Energy=-4209.611533489905
C		0.51745452		0.20950472		-0.18385473		-2.0739943203502667		-2.836267620674988		0.1535562543398714
C		-0.74579336		1.04023765		-0.3383341		3.5926334001998805		3.1161036048633357		2.401232190141351
O		0.25345644		-1.15955956		0.41100739		-0.24087718986252366		1.59980037220027		-0.179109111298122
H		0.95914803		-0.11758505		-1.12543943		0.46204245199576094		0.41643396224284357		-0.5593684239420834
H		1.17463096		0.75366278		0.43604644		1.6897346283584225		0.8692009026148366		1.0334281605090991
H		-1.43675219		0.60326859		-0.92661365		-2.9404206427417767		-1.4837491590588494		-2.7404595251679074
H		-1.14677812		1.15795479		0.66405406		-0.6254424317494137		-0.18169286424771647		0.8502963012659313
H		-0.50786873		2.16969673		-0.5425304		-0.3072806588239368		-1.6997931437270353		-0.4576412376711223
H		-0.34567042		-1.05442318		1.19285951		0.44360481439591554		0.199963997209366		-0.5019346081770173
9
Lattice="50.0 0.0 0.0 0.0 50.0 0.0 0.0 0.0 50.0" Properties=species:S:1:pos:R:3:forces:R:3 Energy=-4209.718460811471
C		-0.16326655		0.52323468		0.2096511		1.3542956595162892		-1.6528599702234812		0.5503664262684588
C		-0.67011796		-0.00096352		-1.11818848		2.0634352112037546		0.796849392268387		-0.01664089931596646
O		0.71596233		-0.48585719		0.78013714		0.08554682294624903		-0.8461963688051558		-0.3449489650706491
H		0.49846706		1.36253348		0.24452123		-0.024174899950921046		1.949164127020043		-0.6663295534169118
H		-0.95904518		0.57642684		0.91761438		-1.515232008258218		0.9054080509571839		0.8265040843037235
H		-1.29022512		0.6968777		-1.69744304		-0.4720019798941677		0.09476577030132784		0.1817525652622147
H		0.2659889		-0.16347635		-1.74083582		-0.841718535607475		-0.4415650554449232		0.2844405213478919
H		-1.16223102		-0.91189908		-0.79266807		-0.45476751571140245		-0.8335903530409724		-0.663788532201209
H		1.21200626		-0.0732022		1.51161921		-0.19538270282204628		0.028024458389653235		-0.15135575002167703
9
Lattice="50.0 0.0 0.0 0.0 50.0 0.0 0.0 0.0 50.0" Properties=species:S:1:pos:R:3:forces:R:3 Energy=-4209.647032987396
C		0.12914935		0.34947547		0.3503568		0.6408829858617344		-1.9006909655903963		-0.9103105789685952
C		-1.34370146		0.2533859		-0.04943227		1.1679150572119925		-1.506362268129201		0.3340931506238319
O		1.11823283		-0.53947962		-0.22310415		-0.3542782641717341		0.13601500613256137		-0.47437819339973547
H		0.36640111		1.38998012		0.217909		0.7909537499649818		1.272111170967109		-0.00029716809886769474
H		0.33546011		0.0291522		1.3406865		-0.42524518406479866		0.2867403730907293		2.0956329813372916
H		-1.91597687		0.42151508		0.87281305		-0.5796008972094973		0.3966448499978277		-0.1682403899136312
H		-1.41763068		0.97845062		-0.82917358		-1.0802046509883845		1.0407569871148994		-0.8570598965613399
H		-1.6182224		-0.73566114		-0.47800319		0.04134626926306662		-0.03249313846021915		0.258901394080314
H		0.97156895		-0.70532792		-1.16866061		-0.20176896302323596		0.3072780362987521		-0.2783412990992682
9
Lattice="50.0 0.0 0.0 0.0 50.0 0.0 0.0 0.0 50.0" Properties=species:S:1:pos:R:3:forces:R:3 Energy=-4209.80931755763
C		-0.22025254		-0.36552688		0.36494361		2.386457191783251		1.1623317010938137		0.16762425076141926
C		-1.00377615		0.8828519		-0.0806811		2.621781056012064		-0.3233724733571192		1.7236656305287192
O		1.0811276		-0.51793571		-0.27684008		0.40801745617221374		1.120884696010418		-0.254996814034766
H		-0.02021867		-0.36582722		1.45918881		-0.39826881015189247		0.10408365370455014		0.26664565952860475
H		-0.76105588		-1.28702239		0.15035312		-0.3298666684673803		-0.4871805385983328		-0.3381863982164893
H		-1.90690624		0.76215496		0.45367548		-2.1307059646703594		0.24722570626987905		0.35900595717083383
H		-0.50993837		1.83828902		0.32022005		-0.3833748211412961		-0.8707710752915843		-0.7760893800623534
H		-1.04034161		0.77984846		-1.14238503		-0.515687335933717		0.5591552794932503		-1.402671221871416
H		1.66196963		0.32795025		-0.23396528		-1.6583520521808206		-1.5123570007469371		0.2550022647733851
9
Lattice="50.0 0.0 0.0 0.0 50.0 0.0 0.0 0.0 50.0" Properties=species:S:1:pos:R:3:forces:R:3 Energy=-4209.827527239031
C		0.18242524		-0.37363351		-0.34626959		-0.6924672849134081		-0.5300868503918456		1.0453596216581338
C		-1.30366693		0.12930037		-0.40578446		1.4595782186067365		-0.2964900989743619		-1.8677458272012886
O		1.04391538		0.15887695		0.72499185		-1.2484522399907578		1.2200339914469034		-1.7227144766396805
H		0.0630161		-1.47847114		-0.15183415		0.8037574321372027		0.43508335589583613		-0.3087552378865999
H		0.65116549		-0.13296382		-1.33584707		-0.11837569605216938		-0.4930159142445529		0.14627663864783053
H		-1.22777904		1.18232453		-0.57724429		-0.31535572239993415		1.6074534663318465		-0.035610035353239824
H		-1.86244994		-0.25102409		-1.30932994		0.6416076255657046		-0.08719412871666374		0.23493367361898243
H		-1.97285775		-0.05865498		0.39462979		-0.5479025895684851		-0.4012503127544964		1.7525817474811627
H		1.13827834		1.12687229		0.433106		0.017610308037173204		-1.4545335085926654		0.7556739470967616
9
Lattice="50.0 0.0 0.0 0.0 50.0 0.0 0.0 0.0 50.0" Properties=species:S:1:pos:R:3:forces:R:3 Energy=-4209.536322896539
C		-0.49152442		0.13646295		0.34929283		1.7172240916104018		-2.528721366898525		-1.6805854093200185
C		0.13063877		1.10721813		-0.5768338		2.108016288149028		1.8452809165149024		1.470277967094034
O		0.29693821		-1.13088142		0.27893824		-0.7313949688914525		0.9894535553682986		1.7734634242869405
H		-0.62729522		0.44029792		1.33773513		0.49668220445273237		0.586290136202611		2.6343045393660236
H		-1.47255615		-0.168814		0.07475986		-1.7893939792322964		-0.0030503567442172782		-0.8931597784814275
H		1.25923206		1.26837349		-0.34563885		-1.3035739655621246		-0.6794671704626486		-0.42763533294928896
H		-0.05298288		0.69364675		-1.51512446		0.3016792021397775		-0.8391114884635931		-2.6766490137052665
H		-0.20167437		2.1506799		-0.67462967		-0.7812362142924395		0.24646239717495053		0.4902868939685523
H		0.68122326		-1.25460133		-0.59339281		-0.018002606951563516		0.3828634801523464		-0.6903033416816119
9
Lattice="50.0 0.0 0.0 0.0 50.0 0.0 0.0 0.0 50.0" Properties=species:S:1:pos:R:3:forces:R:3 Energy=-4209.249994747181
C		-0.27500144		-0.40374554		0.01464845		3.5877386369198985		0.2644555938890866		5.570339342979833
C		-0.98856671		0.94365434		0.35883396		1.4983427403806442		-1.2737134310108222		-0.3804181039727906
O		1.15168199		-0.47980516		-0.3271543		-0.9759962473603433		0.9725334342532576		-0.5516215873906705
H		-0.24019164		-0.98459314		1.08033344		-0.11644870568411815		1.028137241660043		-1.8471266086022287
H		-0.69805982		-1.14236423		-0.54934215		-2.4900379377170925		-1.787321155895152		-2.415905218549623
H		-1.41895381		0.807619		1.3374203		-0.964106900880451		-0.23265711607043235		0.7120345109589752
H		-0.30335422		1.78857954		0.57420502		0.16791817927035294		-0.024113759118674347		-0.8128901961156243
H		-1.73980705		1.0771965		-0.39571644		-0.8536407407852695		1.0086192265282352		-0.6356413807705629
H		1.17509536		-0.36541499		-1.30430893		0.14623102727844212		0.04405996576445871		0.36122924146269114
9
Lattice="50.0 0.0 0.0 0.0 50.0 0.0 0.0 0.0 50.0" Properties=species:S:1:pos:R:3:forces:R:3 Energy=-4209.747027185575
C		-0.0562207		-0.22568691		-0.5381278		-2.311822644708384		0.6862318456213686		2.0532205270314976
C		-0.22524933		1.30616156		-0.17700807		-1.5111048735264097		-2.5019876022762326		0.14993783807182795
O		0.2853869		-1.04588572		0.62114903		-0.5160424052748974		1.8628490584608708		-0.22298544887759084
H		-1.07168731		-0.55732391		-1.02649817		1.3154152838356938		0.2221492232981158		0.6900766732303558
H		0.68783917		-0.25111006		-1.28711596		1.5323742212609575		-0.6131769843048009		-1.3396236595492663
H		-0.58245107		1.71053401		-1.12015117		-0.7906236717461494		0.7928660336231738		-0.28315003326878063
H		-0.95179694		1.38354337		0.69976674		0.36776246591834777		0.3040250252064405		-0.9464183798862995
H		0.67058896		1.83588721		0.0382026		1.570294289925399		0.4671194036429847		0.5886902095451532
H		0.07048864		-0.39633366		1.35769104		0.3437473857375047		-1.2200760032719205		-0.6897476748748348
9
Lattice="50.0 0.0 0.0 0.0 50.0 0.0 0.0 0.0 50.0" Properties=species:S:1:pos:R:3:forces:R:3 Energy=-4209.709675415406
C		-0.01341493		-0.06132771		0.55193022		-0.6658634124208511		-1.866328532316189		-0.4628759007838639
C		-1.16737193		0.61804315		-0.25914041		2.9557346471584207		2.173497296732246		2.614060753244872
O		1.04070826		-0.47058483		-0.30547282		1.305360830810014		0.2285109551755194		-0.10286099132580344
H		0.24229525		0.54374478		1.43745689		0.5351285779262948		0.7040695420186721		0.04949548345310913
H		-0.32229213		-1.02669752		1.01021236		-0.9276534408589937		0.04201167075110054		0.2916637270374309
H		-1.97917775		0.78129317		0.51221886		0.3260041002468496		0.39794176583474455		-0.9293911466151863
H		-0.6272398		1.57287827		-0.69436234		-1.4637266934944597		-1.1077665679263478		0.732203375135145
H		-1.46359672		0.03305259		-1.06750695		-0.8832768180340009		-1.538420324519076		-1.8383568843846665
H		1.6998376		-1.06987581		0.16195429		-1.1817077399112117		0.96648419424933		-0.3539383643389749
9
Lattice="50.0 0.0 0.0 0.0 50.0 0.0 0.0 0.0 50.0" Properties=species:S:1:pos:R:3:forces:R:3 Energy=-4209.43993274323
C		-0.12391654		0.24248832		-0.53370511		1.948070791128345		-0.5857350350385208		0.3500192832718175
C		-1.23675744		-0.08723224		0.55098222		-0.1866221317315992		1.5312712180215196		0.6089087474336443
O		1.22606267		-0.18294607		-0.07397582		-0.27649920655631305		0.6293259287493593		0.5585894825401717
H		-0.1623876		-0.29204978		-1.54135473		-0.7001957123664659		-0.29867944470500574		1.1271496001442383
H		0.01395808		1.27701694		-0.97584823		-0.8751716725514735		0.03650987002395894		1.0901821251865842
H		-1.13453579		0.40057608		1.57855725		1.1009991673983182		0.004885558730804777		-0.7909916480250034
H		-2.2413265		0.38641248		0.39500765		0.11440426732544333		-0.5335855560985179		-0.9239392252886158
H		-1.37281935		-1.13865918		0.88505615		0.21773489634755386		-0.13344472576332744		-0.8559479973050991
H		1.64828965		0.41912825		0.62695153		-1.342720347571746		-0.6505477624982083		-1.1639703679577378
9
Lattice="50.0 0.0 0.0 0.0 50.0 0.0 0.0 0.0 50.0" Properties=species:S:1:pos:R:3:forces:R:3 Energy=-4209.488903023046
C		0.12652405		-0.11142152		0.50187828		-1.7982603769272547		-0.09703209485945136		1.6160034126545206
C		-1.27577911		0.26416745		0.00105773		-0.3000329762326741		1.3362522234471446		0.7105291815029704
O		1.10616296		-0.1687618		-0.43108928		1.0621065018447984		1.3287991611384777		-1.8700969981624458
H		0.4039932		0.41349492		1.48678925		-0.1645088965302719		-0.3715596252754488		-0.7161004020144123
H		-0.14651548		-1.15028827		0.6445014		0.3441780455104787		-1.0601798200091221		1.4763309609085205
H		-1.88995619		0.21473832		0.9440967		-0.2741207819020602		-0.2790656816929261		-0.8190264422492082
H		-1.56602417		1.23185883		-0.50532786		0.8436656320019419		0.07383462547147841		0.4936095819554765
H		-1.50051771		-0.46463666		-0.76595433		-0.7357701636524941		-0.8707186247878906		-0.32712648960382923
H		0.83412476		0.61201662		-0.95429631		1.0227429644654733		-0.0603301634322616		-0.5641229078357168
9
Lattice="50.0 0.0 0.0 0.0 50.0 0.0 0.0 0.0 50.0" Properties=species:S:1:pos:R:3:forces:R:3 Energy=-4209.6191967614095
C		-0.04891004		-0.15386131		0.56346259		0.5850330210420264		1.609911286650514		-0.13008064301613528
C		-1.12342113		0.62691974		-0.23220021		2.0524169544616746		-2.41551708482229		-0.8775026346420899
O		1.04143781		-0.39855183		-0.32095814		1.266665266021845		-0.5795750833341501		-0.023216032752515454
H		0.16572094		0.54900151		1.43821134		0.5267211735607176		-0.8150811873522664		-0.26837606335193004
H		-0.42706481		-1.09040502		0.9082616		-0.6866407538619285		-1.2287886490001692		0.9195031468056399
H		-1.63914802		1.28430836		0.37537808		-1.0371179505998158		2.3103287309502414		1.6750255016623148
H		-0.49473318		1.09395936		-1.02002824		-0.8088908966310532		0.17540554009467021		-0.2609804909090765
H		-1.90835896		-0.06949281		-0.52791567		-0.17446914433755292		-0.3277346069142998		-1.1072152205728163
H		1.74107131		-1.07951778		-0.02657239		-1.7237175668117886		1.2710511051498126		0.07284248819867113
9
Lattice="50.0 0.0 0.0 0.0 50.0 0.0 0.0 0.0 50.0" Properties=species:S:1:pos:R:3:forces:R:3 Energy=-4209.729213541943
C		-0.26484098		0.28904242		0.48666227		0.20148120516179568		1.1303468697208598		-2.695118635827952
C		-0.88254826		0.00405715		-1.01054759		0.27210220884079506		1.5046907939894372		1.9464490421229654
O		1.02777911		-0.28161253		0.54019324		-1.751269199337263		-1.1643558791598854		3.3897411222225413
H		-0.14399243		1.39152608		0.65184919		-0.3968902875018761		0.06757018413622007		-0.23693512313345355
H		-0.90861473		-0.02456666		1.29933808		-0.3225981085187651		-0.8703103850341426		0.569893543105319
H		-1.97521815		0.24226832		-1.19503336		0.8268637816305238		0.48949679397909013		0.27150365603393917
H		-0.17504072		0.55527107		-1.70887864		-0.815299114052907		-0.6354086959380008		0.1570658101017195
H		-0.8659984		-1.06642407		-1.1094995		0.5112946576714443		-1.166498019437205		-0.46192783221857175
H		1.42595107		-0.12203605		-0.26979787		1.4743148046841899		0.6444683377436259		-2.9406715309844436
9
Lattice="50.0 0.0 0.0 0.0 50.0 0.0 0.0 0.0 50.0" Properties=species:S:1:pos:R:3:forces:R:3 Energy=-4209.785400514022
C		-0.00887018		-0.38990774		0.47312661		2.985530904131667		0.44320171684841175		-2.3972729484434243
C		-1.08779092		0.58730948		0.31150996		-1.196615510034543		0.5182883666962929		-0.02075466431153932
O		0.97130396		-0.13264186		-0.72178604		-1.4323644804535858		-0.5051983664803801		2.1968089745209087
H		0.49962195		-0.33766201		1.44229934		0.5559252540628514		0.5526043144260504		0.44221472178184895
H		-0.30112653		-1.42229225		0.43016528		-0.7988057960561568		-1.2128222528772894		-0.37956346929496027
H		-1.79862834		0.38218668		1.14057637		-0.2485070412218751		0.3153085683686724		-0.04515386729884397
H		-0.69400231		1.64606377		0.43473369		-0.46526059892973504		-0.7667772045080624		-0.4395677196954476
H		-1.63635199		0.37665544		-0.66390759		0.49306538226862473		0.6475012624086744		0.7055102853642464
H		1.57954356		-0.89323526		-0.67649048		0.10703188623275232		0.0078935951176301		-0.06222141546691378
9
Lattice="50.0 0.0 0.0 0.0 50.0 0.0 0.0 0.0 50.0" Properties=species:S:1:pos:R:3:forces:R:3 Energy=-4209.273127440507
C		0.14153552		0.42280082		0.31322901		1.3384634749763897		-0.7748695973191038		-0.48899686868800313
C		-1.38948224		0.27171978		-0.00248968		-0.44167103631562155		-0.379872207357878		-1.1481059417846855
O		1.13874335		-0.62956642		-0.2328875		-2.9803286369182658		0.38510969868405404		2.836918418297288
H		0.5814391		1.50368221		0.10036461		-0.889520176323657		-1.762514690173286		0.6126913029250111
H		0.15235665		0.10044681		1.38172478		0.5876350802458511		0.8050789791420306		-0.06997699376894242
H		-2.11668362		0.12891747		0.86976694		1.0777494531949015		0.480912343452516		-0.48151285029774477
H		-1.82226542		1.01103238		-0.71796674		0.2272027264848648		0.4771337988820199		0.4935180506843251
H		-1.60214722		-0.62204513		-0.62686621		0.5147222466657556		-0.48817401284476364		0.21756252959423933
H		1.60126274		-0.40616344		-1.01311158		0.5657468679897816		1.2571957389564732		-1.9720976469614875
9
Lattice="50.0 0.0 0.0 0.0 50.0 0.0 0.0 0.0 50.0" Properties=species:S:1:pos:R:3:forces:R:3 Energy=-4209.5894102222
C		0.40047355		0.01207175		-0.41002749		0.02967659783393775		-1.383692418486403		0.7550544655104907
C		-0.65538204		1.11458895		-0.31974808		-1.5936096701025573		-2.0121116220086757		-0.01374136348089937
O		0.29334914		-1.04885072		0.64762458		-0.1691954004573534		1.6156208325099317		-0.8155584869358776
H		0.64552414		-0.5832065		-1.3639361		-1.176724942060324		0.8849938521210907		0.43634561326266513
H		1.27610432		0.64862434		-0.34524265		1.561020166697317		-0.17835115009768768		0.9128513430739859
H		-0.56578497		1.85359902		-1.09283499		0.6908892446611063		1.1531160447507314		-0.5912768421302443
H		-1.64201831		0.691409		-0.6054906		-0.3688680916829704		-0.11190824041437951		0.4118087019921337
H		-0.75837718		1.55140476		0.71156231		0.38466196678634845		-0.13254355411898475		-0.5607702407863874
H		-0.57536375		-0.93992617		1.11202897		0.6421501797465581		0.1648762557443766		-0.5347131390838045
9
Lattice="50.0 0.0 0.0 0.0 50.0 0.0 0.0 0.0 50.0" Properties=species:S:1:pos:R:3:forces:R:3 Energy=-4209.152251647799
C		-0.01082213		0.00483276		0.60677734		4.880737449652028		1.390359134616166		-1.7392187989577936
C		-1.14325381		0.45572903		-0.14915513		-0.23730741886555284		-1.505977168303553		-1.8578070738161094
O		1.01331671		-0.47905759		-0.39105221		1.0694808369758626		1.9836998526446892		0.8074362693286188
H		0.47499958		0.87777496		1.15649451		-0.4048429151471927		-0.8461799651672363		0.17743948835260634
H		-0.22193842		-0.82740541		1.24227047		-0.2822751897204096		-0.9102413134504823		1.0461058072062681
H		-1.62192467		1.08518633		0.4937065		-3.2504206030719116		1.5235888647364124		2.2332579608229333
H		-1.02700734		1.07630639		-1.01440837		1.2291560596363365		0.8422173296131882		-1.0189570665400474
H		-1.54783811		-0.45692085		-0.5756808		-1.492809315085099		-0.3240626602792514		0.06568217169150191
H		1.61004176		0.35972069		-0.54813329		-1.5117189043740613		-2.1534040744099325		0.28606124191202265
9
Lattice="50.0 0.0 0.0 0.0 50.0 0.0 0.0 0.0 50.0" Properties=species:S:1:pos:R:3:forces:R:3 Energy=-4209.700936048677
C		0.04466869		0.03796421		0.51266388		0.11443424638784858		-2.867458803936171		0.2828813529925073
C		-1.19654377		0.4468822		-0.12187415		-2.253729803791027		0.046879283182112125		-2.3991658459840743
O		1.03479795		-0.45856307		-0.38400611		1.7552333775531845		0.9874029977841927		0.6716563648655544
H		0.39441842		0.80993063		1.11571486		1.1739465051823141		2.2135335889545353		1.4249600634159918
H		-0.20730122		-0.77046844		1.22010124		-0.06585078463425795		-0.3978509030504047		0.5398546768414586
H		-2.01375845		0.84684056		0.48710162		0.31108532580215487		0.6545735957670008		1.0284950877925956
H		-0.96148171		1.21487846		-0.90017676		-0.36744020385300713		-0.2948216073142199		-0.0896962748531585
H		-1.83415498		-0.39598272		-0.54819425		1.099759792849277		0.30956966051159845		-0.37659317670196935
H		1.92140561		-0.20523111		0.06423848		-1.7674385069185494		-0.6518278633207059		-1.0823922483689052
9
Lattice="50.0 0.0 0.0 0.0 50.0 0.0 0.0 0.0 50.0" Properties=species:S:1:pos:R:3:forces:R:3 Energy=-4209.77652059108
C		-0.3691216		0.35096287		-0.23702869		2.020880317784989		0.7630432942877684		-3.093419841879185
C		-0.51848429		0.01881145		1.1687401		-1.3295390217729317		0.1335989919506614		1.659714839679729
O		0.76711051		-0.35254632		-0.88327882		0.11723001250090233		0.6357137830344848		1.2117060855898656
H		-1.22130388		0.02937413		-0.84867296		-0.48527514549650835		0.16481511491212988		-0.10319816578925307
H		-0.08663985		1.43700864		-0.4877789		-1.129086617814466		-0.5959648372971368		0.6745100322209207
H		-1.52472757		0.24341889		1.61007392		0.3686596780638821		0.9493774624696776		-0.1414649219986963
H		-0.60273993		-1.03648797		1.32536806		0.5892504529154876		-1.6543324409815843		-0.18921935726155412
H		0.29863723		0.39095282		1.78575104		0.2866841687764773		0.3114483141409517		0.535295236830678
H		1.53594781		0.12406729		-0.46648714		-0.43880389637989453		-0.7076996825169529		-0.5539239073925052
9
Lattice="50.0 0.0 0.0 0.0 50.0 0.0 0.0 0.0 50.0" Properties=species:S:1:pos:R:3:forces:R:3 Energy=-4209.460962623664
C		0.16054114		-0.02325703		-0.55112685		0.8698275832898494		3.2771662976126916		0.27670129526172066
C		-1.30813268		-0.15054235		-0.11926972		0.7141431754736435		-0.22829739935018672		-1.93124482380964
O		1.1081539		0.16617794		0.58610717		-0.6928007055662992		-0.6068985561685577		-2.235188499313293
H		0.50418239		-0.79117062		-1.31203362		-0.24802007429052414		0.05382239289751512		0.9319167412121557
H		0.22146797		0.98161213		-1.09956636		0.11808562419791904		-0.8934086612636597		-0.027436549949723436
H		-2.05227616		0.62511382		0.06140586		0.6320267697351402		1.4554296408748884		0.4149813918229068
H		-1.78459741		-0.60182415		-0.9842131		-0.509093124912001		-1.030946788885832		-0.4264768967265356
H		-1.32369568		-0.79795451		0.70395925		-0.4565916105325018		-1.8156998608729864		1.7045109636901457
H		0.51859771		0.01592828		1.31545803		-0.427577637395226		-0.21116706484387196		1.2922363263902008
9
Lattice="50.0 0.0 0.0 0.0 50.0 0.0 0.0 0.0 50.0" Properties=species:S:1:pos:R:3:forces:R:3 Energy=-4209.701886824297
C		-0.42746645		0.17558893		0.37656532		-0.20608800489208798		-0.30665819475804423		3.2974129633693394
C		-0.02525796		0.92481447		-0.81434062		0.2659600491700301		0.83155985006122		-2.701354486496491
O		0.3531426		-1.03680218		0.42340295		-0.6313866679018291		0.27293416638908724		0.4170982838675662
H		-0.30290593		0.8239386		1.3499492		0.4125626522716973		-0.6532203213496448		-1.040990648966648
H		-1.53889512		-0.04305369		0.54393748		0.9213839087395534		-0.34738030302715756		-0.9049974972106255
H		0.12166857		2.01421162		-0.77298637		-0.09348340690808285		0.2934428789759537		0.46313933600976787
H		0.90942281		0.50252631		-1.25140634		0.1716534778863331		0.14836514571402043		0.4283110188498119
H		-0.67861271		0.77000776		-1.69079327		-0.5231995850362575		-0.04382789799664595		-0.0638638875634587
H		1.27747484		-0.72409271		0.31703766		-0.31740242332935653		-0.19521532400878888		0.10524486671867546
9
Lattice="50.0 0.0 0.0 0.0 50.0 0.0 0.0 0.0 50.0" Properties=species:S:1:pos:R:3:forces:R:3 Energy=-4209.500515593346
C		0.17803013		-0.57061933		-0.22365059		0.9981294343218993		1.4343961147187119		2.054498108172935
C		-1.16652062		0.1219666		-0.46058213		-1.6277371045513929		-1.9044829313191907		-0.5661096506403287
O		0.93940154		0.36485498		0.6538404		0.41384532419731707		-2.041921248718158		-0.6000452807962455
H		0.37453214		-1.63392139		0.2560217		-1.346398824808725		1.659837738408972		-0.3690145931388752
H		0.5918748		-0.73102728		-1.21673504		0.9668343270725158		0.3350309347766351		-0.8409531696300486
H		-1.11596915		1.1420651		-0.99460288		0.28760632062229735		-0.9076715987239352		1.1536734599076313
H		-1.69135994		-0.49540382		-1.24317445		-0.04944436992303915		0.18426838966731973		0.15698713434617917
H		-1.87839566		0.01956331		0.42624054		0.7358373722881092		0.8267919964313509		-0.5939884817491387
H		0.58580261		1.25193207		0.54697853		-0.3786724792189816		0.413750501914169		-0.3950474750500468
9
Lattice="50.0 0.0 0.0 0.0 50.0 0.0 0.0 0.0 50.0" Properties=species:S:1:pos:R:3:forces:R:3 Energy=-4209.6760821143835
C		0.11412754		-0.11136336		0.51831585		-1.449982450378063		-1.0500426803070313		1.4193633889836401
C		-1.2396706		0.28953606		0.01648544		-1.7318869384503093		0.9147662492573627		0.1743157009032181
O		1.0949605		-0.19819541		-0.43338235		0.4449115004246968		1.1191020987937113		-2.9250932685888964
H		0.42651433		0.49197361		1.42181683		-0.15295225079439642		0.0457084028202472		-0.3945697640899359
H		-0.13588918		-1.12928302		0.92507048		0.7386255279359213		-0.08155127727223645		0.1434711023429123
H		-2.11666163		0.20065224		0.72852052		0.864108010128255		0.05244752121393222		-0.09097149057972365
H		-1.30319547		1.28277038		-0.40001948		0.32396480409441925		1.7628088757925318		0.2975082558107662
H		-1.63013333		-0.14755598		-0.89800342		0.24908091143875755		-1.6669078606186134		-0.5846467899310045
H		0.78973601		0.32284954		-1.27088672		0.7141308856007192		-1.0963313296799042		1.9606228651490238
9
Lattice="50.0 0.0 0.0 0.0 50.0 0.0 0.0 0.0 50.0" Properties=species:S:1:pos:R:3:forces:R:3 Energy=-4209.452705628016
C		0.10780219		0.38444224		0.33444785		-1.47232158269971		0.6616705088711758		1.424619135141984
C		-0.80839802		0.62863747		-0.8392941		1.2126328139992433		-0.9565106795499383		1.086952973931247
O		0.60440452		-0.96432834		0.42548038		2.3756458059983863		1.7866611537236752		2.2578653203190138
H		0.82051019		1.22863459		0.31555207		1.1729816216026026		-0.40546018558477837		-0.2869901814700855
H		-0.53855665		0.82708693		1.22077283		0.7464745915474743		-1.4539067250735276		-0.34558274199027955
H		-0.91930573		1.67986794		-0.82729763		-0.8071091221673458		1.7500806812079799		-0.40513370691031714
H		-0.3404146		0.31175998		-1.72503474		1.167502138050562		-0.3450324230779968		-2.0169336230702988
H		-1.70814891		0.06746728		-0.82346071		-1.6898416890924322		-0.5885125463194067		0.4238949949711892
H		1.43935312		-0.88112606		1.10145399		-2.7059645772387797		-0.44898973277512033		-2.1386921709224525
9
Lattice="50.0 0.0 0.0 0.0 50.0 0.0 0.0 0.0 50.0" Properties=species:S:1:pos:R:3:forces:R:3 Energy=-4209.71049478282
C		0.38783994		0.04584151		0.43439234		1.4735910905773437		-0.7430162007377586		1.6510400920115025
C		0.22373834		1.02643451		-0.64723984		0.36798054688517556		-0.5578508046131542		-3.1437120587678113
O		-0.58140027		-0.93955329		0.19533026		-0.3719231792569325		-1.7885617645736922		1.172873789537656
H		1.4051468		-0.43489809		0.39374816		-0.0008828653901123811		0.2935687087627558		0.005628504689005238
H		0.39496946		0.55623945		1.50869391		-0.5240170415629404		-0.6545309668772343		-1.407769359408367
H		-0.82462605		1.18802294		-0.83080957		-1.1445073230106833		0.7504734796555458		0.2956644663397504
H		0.80711		1.91269782		-0.63216958		0.5788371253160067		1.6832176532744985		0.8589679121883491
H		0.52523711		0.69729535		-1.71977448		-0.11990668511733427		-0.5788936895846958		1.3395483262277847
H		-0.36766706		-1.78431849		0.7160721		-0.2591717198625855		1.5955936361157974		-0.7722416728178693
9
Lattice="50.0 0.0 0.0 0.0 50.0 0.0 0.0 0.0 50.0" Properties=species:S:1:pos:R:3:forces:R:3 Energy=-4209.874822672854
C		0.1458096		-0.42709729		-0.37072793		1.5628816967798764		1.752451084020491		-0.2694247648934265
C		-1.21460906		0.18461765		-0.3583361		-1.7637568929357614		-0.9306269216198563		1.205986666694458
O		1.00803288		0.16625796		0.65650741		0.037997150336045865		-3.2092776052216894		-1.1029112453682604
H		0.05103736		-1.46098355		-0.13611498		0.2080292905934988		-1.6301261221505092		0.31004577738777356
H		0.59715659		-0.35195075		-1.43379525		-0.2011275242163013		0.03248228840504333		1.0418919234551156
H		-1.09078209		1.2723378		-0.36309485		-0.3618459462575899		0.6008696278792959		-0.4775707835686746
H		-1.86240906		-0.21943164		-1.21942006		0.5520059673074443		0.7090843758144626		0.9255438507472016
H		-1.73765273		-0.05418472		0.67366594		0.6416833702636855		0.2957046783925821		-1.660036433258258
H		0.77669302		1.0630477		0.74536687		-0.6758672147150228		2.3794385944801797		0.02647506022613317
9
Lattice="50.0 0.0 0.0 0.0 50.0 0.0 0.0 0.0 50.0" Properties=species:S:1:pos:R:3:forces:R:3 Energy=-4209.731329752414