12
Lattice="50.0 0.0 0.0 0.0 50.0 0.0 0.0 0.0 50.0" Properties=species:S:1:pos:R:3:forces:R:3 Energy=-11266.681567970549
C		1.68753633		0.19594499		-0.07569104		-0.31199297662636555		-1.160215580380091		-0.11119146828596337
C		1.28042384		-1.15755255		-0.04403899		0.6172276030076917		1.8477886162341415		-1.0806210154279987
N		-0.03748583		-1.54104381		0.00445297		1.9310715314592013		-2.172376192926828		0.7237284021795157
C		-1.09090174		-0.67506983		0.08349414		-0.5212500718048555		-0.9817639001503239		-0.04617814336067917
N		-0.65561211		0.56640182		-0.19573748		-1.4058545046470525		3.73410742390363		-0.31727186271280955
C		0.68721091		1.22893767		-0.11900012		-2.3845992098230004		-1.849134125920068		0.9908377858672462
O		-2.21299014		-1.10686815		0.30851287		-0.5243465541390856		0.652165809115092		0.04869170519503664
O		0.70836051		2.4289081		-0.0019953		0.6161245483461913		0.8189582051723441		-0.42275661335278936
H		1.96427888		-1.95266999		-0.37123594		0.3442873173931736		-0.17993181287517412		0.7679255620065766
H		-0.25091899		-2.51015914		0.32752517		0.08936933338013534		0.6343762437682368		-0.5546437134226055
H		-1.4508459		1.26696695		-0.23703684		1.0572661431068828		-0.6882817861407249		0.14843173728488626
H		2.69739714		0.61353368		-0.07865834		0.49269678892502133		-0.6556928483781714		-0.1469523245483534
12
Lattice="50.0 0.0 0.0 0.0 50.0 0.0 0.0 0.0 50.0" Properties=species:S:1:pos:R:3:forces:R:3 Energy=-11266.33891019335
C		1.62804755		0.23175208		-0.25585469		-1.8584417249108016		-4.757560578473526		0.5342799082077082
C		1.37426343		-1.15503773		-0.00484919		-0.27180030991218246		3.3459522535712902		-1.047903008288709
N		0.04350069		-1.51406456		0.090732		0.15092354758682963		-1.716496315160622		1.2702669701195937
C		-1.06637932		-0.69540871		0.10886466		-1.6287467767474935		1.0215598456527466		-1.0291615177218782
N		-0.81513967		0.63703973		-0.08280603		4.195007431938057		-0.578880885491147		-0.2848343629241555
C		0.56747519		1.19906593		-0.15844083		-2.1952386990000363		-4.05034189792868		0.5445732167134433
O		-2.23597128		-1.07606665		0.17971617		0.5833083764896948		-0.7941518937166652		0.5079536634302898
O		0.85759035		2.31573335		0.03369345		-0.01690459165218268		5.215631653164624		0.2025865223940437
H		2.07933771		-2.00068614		0.00270658		0.20186609929919402		0.2717828778330137		0.19900255890783816
H		-0.1983715		-2.36114366		0.62730328		0.27127750180330756		-0.23798696142075906		-0.6172764539670141
H		-1.64905816		1.14159066		-0.12478067		-1.751405210692429		1.8390375068031841		-0.02530428270839313
H		2.54068872		0.73059481		-0.30748155		2.320154355798042		0.4414543951665422		-0.2541832141627665
12
Lattice="50.0 0.0 0.0 0.0 50.0 0.0 0.0 0.0 50.0" Properties=species:S:1:pos:R:3:forces:R:3 Energy=-11266.611733864636
C		1.55410572		0.16340555		0.02699503		1.223680072784542		1.0695275796306247		-0.9830623072270517
C		1.25777065		-1.13102765		-0.13836806		1.6092356521720534		-0.17280589772778038		0.08667101207541421
N		0.00443977		-1.5983851		-0.08400105		0.2381920840278508		0.8603134732963383		-0.39682678125475684
C		-1.05020309		-0.68753916		0.05987401		1.0838765976234328		0.6102239695247914		-0.09844136790280973
N		-0.72136324		0.70669519		-0.13843258		-1.5850109242426238		-2.1936557736518023		0.19681167051532095
C		0.59234195		1.23172526		-0.06683578		-2.0090219788087507		-4.212638874442894		0.6178765494357433
O		-2.12640913		-1.11868761		0.3472118		-2.4744667201441		0.011614804088500423		0.3642738389359146
O		0.79943803		2.37926071		-0.04437661		1.0724131800867693		5.257732078395503		-0.1275399817548695
H		2.05105854		-1.86315407		-0.30446137		0.22838543392109198		-0.31342760074650916		0.14079869775766327
H		-0.0299501		-2.55609807		0.22252647		-1.148190993875969		-0.6639831132854996		0.039026002961438634
H		-1.5903576		1.28436149		-0.09144583		0.8949917408780812		-0.0769356329472037		-0.012728040318364884
H		2.54561576		0.56255398		-0.13443224		0.8659157527334969		-0.17596506355613056		0.17314070677635754
12
Lattice="50.0 0.0 0.0 0.0 50.0 0.0 0.0 0.0 50.0" Properties=species:S:1:pos:R:3:forces:R:3 Energy=-11266.007759692684
C		1.58936451		0.1798615		-0.01800059		0.7382071580358713		0.6532255149779517		0.7101343629075202
C		1.40569881		-1.1644242		-0.01673602		-4.471275753433994		1.483218226264108		-0.3397031947924195
N		0.10425236		-1.69531289		-0.03490365		-2.4979214541104837		2.3463884008174976		0.23222259964277506
C		-1.12857408		-0.71110815		0.06387371		1.1634248827193245		-1.2361592303206748		0.7187766118322821
N		-0.69649648		0.62225528		0.14727436		-3.217214754826209		1.9177618561925251		0.9116587626017695
C		0.54960248		1.24091816		0.04001722		2.6587626720368904		0.7767911369485359		-2.95077576056657
O		-2.32913966		-0.98076097		0.18143901		2.272938669483417		-0.4690721564643207		-0.5717281280271572
O		0.84213832		2.43576442		-0.31919671		-1.8331207814541763		-2.9162482110498527		1.9480375210539431
H		2.12937091		-1.88038104		-0.1247854		2.5428162056366688		-2.015468145712688		-0.27139047607449845
H		-0.11949769		-2.65578502		-0.33355733		0.15121583058976512		0.3179775276757376		0.3007942798671673
H		-1.58415159		1.25118177		0.34469464		2.0959448561460188		-1.2091653729065375		-0.7159886104506575
H		2.6185651		0.51990726		-0.08717193		0.3962224691769073		0.35075050499978067		0.027962032005845426
12
Lattice="50.0 0.0 0.0 0.0 50.0 0.0 0.0 0.0 50.0" Properties=species:S:1:pos:R:3:forces:R:3 Energy=-11266.554334346556
C		1.62327633		0.20777579		-0.12902409		1.4253914430978403		-0.9362384056061924		-0.7082635254316585
C		1.35740497		-1.12088526		-0.02673853		-2.592082552379525		-0.1800102829424647		-0.2538818294547784
N		0.01269878		-1.5902468		0.07808519		2.8012869913660716		0.354081883315258		0.13768601747376308
C		-1.03018123		-0.65897664		0.03339522		1.6656568646834597		-0.6713516377235073		-0.8806565039980082
N		-0.6915527		0.59343084		-0.54474752		0.8589725915960315		-0.4858132773799917		1.088309025139975
C		0.57299648		1.18124011		-0.16265086		-1.231440793292815		2.042180107380504		1.3358186840386734
O		-2.09352139		-1.03439808		0.40614855		-3.215998108828769		0.18663668417527102		0.7121402347193615
O		0.59115692		2.36867227		0.23438539		0.3592025437155597		-1.740165016328838		-1.2541847715120884
H		2.08760833		-1.89602036		-0.16401012		0.8337074924992213		-0.5911344544393351		0.2942166267495585
H		-0.15320832		-2.50800221		0.56446181		-0.17756403258784728		1.0957716005301938		-0.6590246380701482
H		-1.3956969		1.29548015		-0.36183354		-0.8660047643235887		0.3457246668826268		-0.0709287133006682
H		2.67316407		0.43884586		-0.32674178		0.1388723244543614		0.5803181835585378		0.2587692908018936
12
Lattice="50.0 0.0 0.0 0.0 50.0 0.0 0.0 0.0 50.0" Properties=species:S:1:pos:R:3:forces:R:3 Energy=-11266.43580477613
C		1.66731689		0.13048224		4.38e-06		-0.22615042539899724		3.325712324104822		-0.20819620660819418
C		1.37035356		-1.15757677		-0.04638132		-1.6095439274364094		-2.02298147467854		-0.7148225123406
N		0.00770238		-1.62950868		-0.09549657		0.2334326121941603		-1.4531837822976181		0.3825163812308449
C		-1.06758439		-0.75537693		0.04867043		-0.587942327068958		2.3191115677937266		0.5486989116275032
N		-0.64592692		0.68151974		-0.16199277		-3.612907576759937		-4.555614106490731		0.07568561403123644
C		0.55333832		1.21789897		-0.07983394		2.6972601076184604		-3.8010811635375537		0.442156203474787
O		-2.24435095		-0.95462757		0.37551832		1.8410969604040923		-0.5687156693429617		-0.8932657593521259
O		0.71210911		2.38370968		-0.06741888		1.3058131906933397		4.489345466177048		-0.014219948616071827
H		2.09344424		-1.9666487		-0.21024829		0.18611444170908303		-0.05877459462124817		0.31776937116696163
H		-0.17495056		-2.70510873		-0.02076678		0.2580942219661201		2.52556400084236		-0.04582970746555416
H		-1.46499847		1.27727452		-0.13927261		-0.3222730696620523		0.4842173936720217		0.05943670509728563
H		2.6688858		0.61148779		-0.02004869		-0.16299415683683954		-0.6835999616213259		0.05007089633186489
12
Lattice="50.0 0.0 0.0 0.0 50.0 0.0 0.0 0.0 50.0" Properties=species:S:1:pos:R:3:forces:R:3 Energy=-11266.689606435957
C		1.74593356		0.18676886		-0.13749433		-2.00102445970292		0.8576290873705399		0.6726854746012593
C		1.39213637		-1.10305031		0.04359447		-1.1635615625613027		-1.2033618789390328		-1.7954254786246804
N		0.00647116		-1.48940318		-0.03128274		2.4579612151185506		-0.5694920396417511		0.35886614058304683
C		-1.09719389		-0.65379283		0.07433493		-0.8762429998004455		-2.247410752225452		0.4315356963857165
N		-0.78506151		0.63354493		0.12938716		4.307871608493283		0.9858566849444194		-0.4299768879847691
C		0.55959052		1.13262047		-0.07574384		1.3503663454587052		1.3073369806697626		-0.00477757239967099
O		-2.22035896		-1.1154205		0.17084047		-0.7712561689911174		-0.17766029468874367		-0.26893944346807375
O		0.74650492		2.34655098		-0.15475285		-0.5521158048328261		-0.3085401393993939		-0.028011500029917185
H		2.14574015		-1.90220358		-0.10825785		-0.40747639323117113		-0.16386000152428273		0.44535516997946933
H		-0.23845291		-2.47803752		-0.1674794		0.11273875814492323		0.2334095236881227		0.3138121349294703
H		-1.45024348		1.34584483		0.06253651		-1.8497327815710487		1.4864314366800877		0.06512280249622888
H		2.77105938		0.59852061		-0.27165621		-0.6075277565246304		-0.20033855551221288		0.2397534635319205
12
Lattice="50.0 0.0 0.0 0.0 50.0 0.0 0.0 0.0 50.0" Properties=species:S:1:pos:R:3:forces:R:3 Energy=-11266.967281326097
C		1.60650539		0.29766553		-0.18090145		-0.20390801797680905		-1.3591185861750361		0.6497097371465478
C		1.41498863		-1.06624197		0.03426381		-1.2141642144409077		1.8668161677343516		-1.0663396174473054
N		0.10860465		-1.59474284		0.10661604		2.973070567070389		1.0426432512094945		-0.2533769676456967
C		-0.99649577		-0.72962684		0.06927979		-1.374985172074711		-2.4607698881692777		0.28629948032732877
N		-0.77024464		0.59959809		-0.19199342		-0.12985700846656348		0.6286285427384848		0.7822126678362012
C		0.47788124		1.24028033		-0.09759305		1.0483508430305397		-0.11906968820692251		-0.7369359018081145
O		-2.09459198		-1.23888921		0.26507816		-0.4145099029323518		0.6899490950934306		-0.2031636322008601
O		0.58233163		2.45573397		-0.03677252		-0.2268399438343177		0.19331157641296265		0.10265797702327191
H		2.28157095		-1.71831799		0.01025147		0.14706514455335698		-0.6897470063880231		0.10447944931918668
H		0.04418434		-2.61133016		-0.03838267		-0.7686419227584932		0.4267071133001003		0.37911589166344195
H		-1.56700362		1.22858187		0.01475048		0.11871816698805082		-0.37894990124587064		-0.2782963047946291
H		2.61666019		0.6882238		-0.34133849		0.045701512263879626		0.1595993236963055		0.23363722058062766
12
Lattice="50.0 0.0 0.0 0.0 50.0 0.0 0.0 0.0 50.0" Properties=species:S:1:pos:R:3:forces:R:3 Energy=-11266.509433393916
C		1.64437323		0.2171318		-0.07285851		-0.7732127784671365		-0.14155408785497534		0.041749109700258094
C		1.35340145		-1.1057516		0.13834767		-0.39539179718017625		-0.5123224304335257		-0.30281573256392935
N		0.0778777		-1.56798025		0.12461359		0.3141591310068469		0.35589317404280874		0.114194105356232
C		-1.03064354		-0.72498768		0.04222622		-1.6929781777912445		0.034022687707635585		0.7472831006352917
N		-0.70585368		0.624984		0.18612687		0.13630045000119168		0.6803293641836581		-1.9219805736175475
C		0.64861424		1.27197369		-0.16814889		-3.2271072283551883		-3.873737092493676		1.977726974403492
O		-2.16918589		-1.19588231		0.00621415		0.5114300005397986		0.3991505442566311		-0.2881227009733667
O		0.55854554		2.4507217		-0.24829592		1.4934091020214537		2.637876881466117		-0.8798587935433041
H		2.00050833		-2.00032838		0.29955311		0.6990534226713202		1.055526431890255		-0.19952336155627767
H		-0.05024484		-2.57285391		0.18041315		-0.5844018666475805		-0.17040381892480294		0.023998008056111415
H		-1.45723554		1.31930368		-0.11877937		0.727134136797288		-1.2094650092644026		0.7881702737248523
H		2.63127857		0.51076464		-0.11847106		2.7916056568254906		0.7446834068463393		-0.10082030677768708
12
Lattice="50.0 0.0 0.0 0.0 50.0 0.0 0.0 0.0 50.0" Properties=species:S:1:pos:R:3:forces:R:3 Energy=-11266.833175978592
C		1.68184139		0.31538897		-0.08688325		-2.7076936955105446		-2.845130470247638		0.3122204164085583
C		1.32481003		-1.04702192		0.02940271		3.5909441854485733		0.9279983286318103		-0.8909227644988975
N		0.09157939		-1.56766953		0.27646038		-0.42434066998639713		-0.08055744307136849		-0.833431407445956
C		-1.05463065		-0.74915352		0.08783626		-0.39055637496025497		-0.0214223283703208		-0.20507010516599591
N		-0.76070156		0.59357337		-0.18759534		0.8385049138149958		-0.4068334631844255		0.5280441089612313
C		0.52675367		1.18893779		-0.11617977		1.2488086463055617		3.130648695180245		0.3152696932894642
O		-2.17784597		-1.21498717		0.11864478		-0.21931453068379142		0.02248203423318037		0.07935010446723029
O		0.69847562		2.43446809		-0.1023518		-1.1892415348579164		-1.5988566230882233		-0.24160589190942697
H		2.18288363		-1.7411756		-0.2215806		-0.8943960677067221		-0.03115775892059375		0.7632965993673707
H		-0.08377061		-2.59939084		0.15880942		0.15260777439807963		1.202606745952033		0.274096356422399
H		-1.53707453		1.25853182		-0.23431834		-0.15186297724563116		-0.11750573759973061		0.015248749819402156
H		2.68251115		0.73911043		-0.17565421		0.14654022813992187		-0.1822719280929058		-0.11649575687125502
12
Lattice="50.0 0.0 0.0 0.0 50.0 0.0 0.0 0.0 50.0" Properties=species:S:1:pos:R:3:forces:R:3 Energy=-11266.308227232632
C		1.52060156		0.27354211		-0.23079937		2.3193837961923087		3.8223997221858608		0.08993636446271261
C		1.38782424		-1.01710064		-0.04346243		-1.2738234742244539		-3.05650661719741		0.4789427756167607
N		0.19005746		-1.61924797		0.1389241		-2.3622700533814682		3.089071797967114		0.1952501367450639
C		-1.03028278		-0.79788264		0.13339737		5.174578283969242		2.512184083038384		-1.6591212233908683
N		-0.77558162		0.58169212		-0.18042861		0.9791290850927219		-0.9712968879176508		1.010505336356643
C		0.55526772		1.32754875		-0.07941341		-3.184326952036728		-0.9939127223573122		-0.7299926892485866
O		-2.0706775		-1.32351171		0.21853036		-4.162650201988879		-1.594209457038912		0.6054206346718357
O		0.56867987		2.54810326		0.00346662		0.506251541741309		-1.1276455145144546		-0.08939247330823542
H		2.25158805		-1.63611635		0.04185209		1.0259767437064304		-0.8591893870112982		-0.1977057973371087
H		-0.18738026		-2.53346531		0.23290475		0.7896492750848856		-1.846848055289966		0.18203230128191364
H		-1.63207569		1.10694107		-0.28506659		-0.49439366556363273		0.6009486121672107		0.1582877011495295
H		2.55043824		0.59151885		-0.31382308		0.6824956214082643		0.42500442596843285		-0.044163066999660244
12
Lattice="50.0 0.0 0.0 0.0 50.0 0.0 0.0 0.0 50.0" Properties=species:S:1:pos:R:3:forces:R:3 Energy=-11266.669597280044
C		1.61630867		0.27714086		-0.17184757		2.0070275741168344		-1.158277739956864		-0.6537412782642715
C		1.38902529		-1.03259166		0.08963428		-1.7739762565157011		-1.5707317888326784		0.41760139732652474
N		0.0591266		-1.56142759		0.17419499		1.1847281690150862		0.8245521542353865		-0.08703348619358661
C		-1.05211304		-0.70454804		0.0510263		1.1116456426289234		-2.847624440276204		0.2784072736053847
N		-0.70004278		0.56086597		-0.17395594		-2.327248337844658		1.9080595928725288		-0.4301916779396005
C		0.52961061		1.14319448		-0.16895735		0.0659759973563107		4.296271716802892		0.7328959788942122
O		-2.18086878		-1.11665212		0.1639852		-1.4901245692048632		-0.2691682716459525		0.025823902649396425
O		0.69455339		2.38171381		-0.02074339		-0.7345527463241167		-1.2984956255192148		-0.6646517029414051
H		2.10568733		-1.77611597		0.4110864		0.8574988352863675		-0.35378898324757313		-0.33561642637963
H		-0.18919216		-2.56396122		0.29856445		0.5324167840412132		0.7304292625587419		0.06468998299663217
H		-1.56227426		1.13037218		-0.18427249		0.5680605008453542		0.4538753429279877		0.0037533477598982365
H		2.56026467		0.80840848		-0.419398		-0.001451541978687885		-0.71510121991905		0.6480626370643827
12
Lattice="50.0 0.0 0.0 0.0 50.0 0.0 0.0 0.0 50.0" Properties=species:S:1:pos:R:3:forces:R:3 Energy=-11266.358717299569
C		1.6646216		0.3110322		-0.03863637		-2.39361791966692		-1.653040564506787		0.8474636655341045
C		1.42262412		-1.06803797		0.06829282		0.28214560612304906		1.351116387661523		-1.0886916567066258
N		0.11815247		-1.55924384		0.00163464		-0.07886627428168848		-2.2033550544921767		1.3464091092212138
C		-1.05208097		-0.7506285		0.01220447		0.9905733736221559		0.5952364952046706		0.430974887372695
N		-0.86263791		0.56804656		-0.32973739		2.8570942244518878		0.6890450952356535		0.22068647130981495
C		0.52746705		1.22981503		-0.1042356		-1.5170621194606237		0.6594489729294416		-0.8752267455803515
O		-2.08419755		-1.23596977		0.40082257		-1.6498854095993076		-0.6997220637492881		0.030793227919923557
O		0.62460641		2.45405306		-0.09002216		-0.43698689780341254		-0.9451161675769509		0.10919017303767961
H		2.32595997		-1.72356768		-0.08474155		-0.9241161686054881		-0.14887175587322524		0.7743043660087119
H		-0.2083936		-2.51496238		0.5048264		1.3590558512588535		2.342448390970925		-1.615544265058952
H		-1.68826178		1.18248447		-0.36326719		0.2699938014364391		-0.1059018864105309		0.1953458846253359
H		2.54930651		0.80577396		0.3105253		1.2416719325250545		0.11871209918468234		-0.37570506626148764
12
Lattice="50.0 0.0 0.0 0.0 50.0 0.0 0.0 0.0 50.0" Properties=species:S:1:pos:R:3:forces:R:3 Energy=-11266.352870351699
C		1.65121842		0.3269224		-0.32957354		-1.3283200617826807		0.292667177163976		-0.41462436844335354
C		1.46735368		-0.95459712		0.00576492		-0.246817363672006		-0.7533659706680578		0.2885931614226729
N		0.1828855		-1.51001223		0.28525462		0.8786922326346848		-0.5980100469867483		1.1138079917767836
C		-1.04250138		-0.84128472		0.06577831		-2.3514713174239645		1.6548710870856917		0.23825245352916083
N		-0.78488041		0.59288296		-0.19860963		-0.6730956169713179		-2.1250327227870276		-0.358925378798983
C		0.45361295		1.18578084		-0.18410026		2.1755190579613832		2.382986356834424		0.7441095880515193
O		-2.22460818		-1.27182293		0.16876168		3.680634443920426		0.6789109380131846		-0.1815236856622735
O		0.6202484		2.396049		0.07309668		-0.7811008714240851		-0.8833767311013311		-0.7571106280994029
H		2.37878587		-1.57226949		0.11473191		-0.5580627663545511		-0.5659044251891121		0.09014570367892483
H		0.24360331		-2.15516368		1.12078286		-0.7000064277546073		0.26555988268008573		-1.346151124733929
H		-1.5509594		1.25922483		-0.38583337		-0.13230932662454933		-0.5491318853932873		0.3962812445942815
H		2.61765945		0.74235323		-0.62627695		0.03633801749126889		0.19982639177026407		0.18714499126253648
12
Lattice="50.0 0.0 0.0 0.0 50.0 0.0 0.0 0.0 50.0" Properties=species:S:1:pos:R:3:forces:R:3 Energy=-11266.725265914913
C		1.57053856		0.21368863		-0.07612502		0.871274908659417		-0.9580249564448088		-0.013196289618985965
C		1.31376527		-1.1185504		0.01752643		0.12354289341898354		1.2754881606519748		-0.27229781836633454
N		0.06809055		-1.63399829		0.01089827		-0.3224307297055077		0.9140199608651033		-0.024927564678923545
C		-0.98923115		-0.74700969		0.03579564		-1.1022298001967439		1.2553385283271594		-0.7875017869130717
N		-0.75408294		0.62696545		-0.33185449		1.2579850161929362		-1.3365080482078067		1.1186890253660935
C		0.51716656		1.21725692		-0.07645907		0.49394634504242657		1.7223048484902466		-0.5597296639307572
O		-2.12867397		-1.04929279		0.28232926		-1.3289469481459437		-1.0634574108472823		0.5595895388105956
O		0.72490407		2.43708502		0.0481141		-0.7290429751772962		-1.418411463763664		-0.06970414830561104
H		2.04292244		-1.87662684		0.11869505		1.579412192927774		-0.8654370133321373		0.0513733657515257
H		-0.00772378		-2.53433858		0.44726114		-0.845349653124942		-0.8190229455489618		0.13917972554365557
H		-1.60342707		1.12476548		-0.0560333		-0.0444375065469274		0.5243139525514957		-0.25436385986813465
H		2.64001826		0.43051905		-0.11413755		0.04627625665582359		0.7693964901028062		0.11288947620994852
12
Lattice="50.0 0.0 0.0 0.0 50.0 0.0 0.0 0.0 50.0" Properties=species:S:1:pos:R:3:forces:R:3 Energy=-11266.5948770477
C		1.70706884		0.2493857		0.05386818		0.26696113388170273		0.550140272037827		-0.6267805366583487
C		1.41074089		-1.06043757		0.01086078		-1.3655667585394093		-2.8731008840496615		0.273726528949297
N		0.04140202		-1.5540538		0.05293497		3.0187535159697263		-0.019674029669264778		-0.4455000773514384
C		-1.03354231		-0.65505531		0.09275294		-2.002208195580396		-3.8445682361043163		-0.17671757401794574
N		-0.67817373		0.60729047		0.24859271		0.4771593042249925		0.6170038141919326		0.7447681504052481
C		0.56598018		1.16723055		-0.06399227		0.17579866176205966		-3.6977877126665915		1.3993071391242238
O		-2.19390587		-1.07301539		0.01018005		0.41899056434346726		0.3725115504954244		0.19095094379231561
O		0.54703068		2.29041593		-0.36101115		1.027908362060102		6.0611302760044685		-1.4565445226107512
H		2.19564174		-1.88260976		-0.02983478		-0.7761449673118561		0.7924855617831457		0.011565438908553547
H		-0.11542855		-2.58279868		-0.12316787		-0.15111339784137534		1.4725424918799723		0.23960881327026365
H		-1.41746707		1.24319722		0.49970359		-0.5710010200641897		0.6299947755155769		-0.33351665788176477
H		2.74782664		0.61622838		-0.08390455		-0.5195372543268862		-0.060677879418512395		0.17913240549240947
12
Lattice="50.0 0.0 0.0 0.0 50.0 0.0 0.0 0.0 50.0" Properties=species:S:1:pos:R:3:forces:R:3 Energy=-11266.56137413446
C		1.59773173		0.18034078		-0.11026964		0.8396793422991694		-0.7197752282849573		0.7124874364849879
C		1.28675761		-1.13437886		0.03148198		0.06831719243735365		0.19595333344899468		-1.0301190479466604
N		0.0075709		-1.55283094		-0.03198232		-1.7103153318327116		-0.7629658526617266		-0.07914544465870053
C		-1.08124767		-0.68659238		0.00253828		0.9890917497369378		1.0369255292421478		1.8625781670359127
N		-0.63531648		0.64639831		0.21280195		-3.7280055277077584		1.9378501934189065		-0.530927395424566
C		0.58125999		1.173526		-0.07286365		1.8396491722359634		2.826573327774671		-0.5176394716903037
O		-2.19749856		-1.12067404		0.14396002		-1.343446221405215		0.17391466023821214		-0.5126611989809111
O		0.77313299		2.41627564		-0.21233666		-0.6676716692467175		-2.091688189238912		0.3869570876994409
H		1.98737082		-1.93270334		-0.06064716		1.1702215938229479		-0.7909752958091462		0.36081534528207404
H		-0.3789634		-2.50699067		0.10774915		0.928140664900657		0.23961410974269545		-0.2197315636102176
H		-1.29159903		1.52430351		0.26170619		0.5029737452148991		-2.320896016204682		-0.06594596687184301
H		2.60300909		0.5122608		0.03876249		1.111365289544475		0.2754694797558588		-0.3666678958971507
12
Lattice="50.0 0.0 0.0 0.0 50.0 0.0 0.0 0.0 50.0" Properties=species:S:1:pos:R:3:forces:R:3 Energy=-11266.903053287364
C		1.66525784		0.26623037		-0.02412278		-0.3802840980780598		0.42610521805918566		0.03602794245472758
C		1.37646523		-1.04416448		0.0769637		-0.13974799075573155		-1.5137436995048823		-0.0960900940975276
N		0.05786544		-1.52461269		0.18349966		1.6581888385546215		0.8678480909960424		-0.566602788219173
C		-1.09223977		-0.74114465		0.0137216		-0.06018062807467254		-0.5860973548905059		1.1227770279083813
N		-0.757222		0.62569119		0.02906633		-0.7739993817563529		0.5704087921710145		-0.04679407682464132
C		0.54804567		1.2204531		-0.05014105		0.8116811091613629		1.8529356561524768		-0.9067151997845272
O		-2.19687064		-1.28906579		0.0143897		0.6664842824028079		1.3362647190083186		-0.1447041519782728
O		0.72855845		2.44444514		-0.25155898		-0.9608867999081038		-1.8805896185822162		0.708801554471017
H		2.20782399		-1.79749697		-0.05653768		-0.8321511009352086		0.2710641002441622		0.5063331485544087
H		-0.09762364		-2.3866932		0.67074534		-0.2254798817047189		-1.0595866150967606		-0.09282340473660565
H		-1.55710364		1.29262081		0.11804571		0.619901190300377		-0.45429659246353427		-0.4092379074022754
H		2.7125903		0.60225352		-0.1190578		-0.383525487784259		0.16968720106257418		-0.110972050345512
12
Lattice="50.0 0.0 0.0 0.0 50.0 0.0 0.0 0.0 50.0" Properties=species:S:1:pos:R:3:forces:R:3 Energy=-11266.444833410671
C		1.60144513		0.1484821		-0.01062401		1.3593724568973256		3.0379522515158155		0.38768280726672244
C		1.26880199		-1.13024421		-0.00351756		-0.6353570681873062		-1.2672398561476015		-0.1512838619783794
N		0.00925545		-1.58129839		-0.17351636		-3.4741178361378613		-1.7183720377324163		1.1958129659059695
C		-1.06507907		-0.65239451		0.03740486		-0.12988760459371804		-3.583628214358384		0.40647356016937525
N		-0.72738806		0.62155601		-0.14258229		0.28865548496235577		2.950388655280486		-0.1424742342403601
C		0.56652979		1.26008204		-0.07326034		1.1796108510488432		-6.883244201726978		-0.37967443810571583
O		-2.15891364		-1.09018098		0.38998864		-0.010241217956478645		0.5835956201305107		-0.3967863635136754
O		0.83559743		2.39146198		-0.1006827		-0.13208954872966086		4.933655482737329		0.0263158575208045
H		1.94769023		-1.91531863		0.1421657		1.7353197210729276		-1.3483378479393884		0.13469757289272918
H		-0.39158132		-2.57677406		0.15561907		1.5900935323167167		2.50541236305711		-0.9363641839709321
H		-1.528672		1.22260711		-0.02945627		-0.6113030100831301		0.7527434551801028		0.042624518891316
H		2.69700932		0.40846454		0.12589807		-1.1600557606100128		0.03707443284753888		-0.18702420083785398
12
Lattice="50.0 0.0 0.0 0.0 50.0 0.0 0.0 0.0 50.0" Properties=species:S:1:pos:R:3:forces:R:3 Energy=-11266.304718669706
C		1.55969676		0.3323129		-0.24370357		1.9086562430630742		-1.7335301304557285		-0.05139948815924758
C		1.49106717		-1.00107413		0.0244181		-2.8260314935026916		-0.13151002208590953		-0.15779739178411967
N		0.19895387		-1.59651622		0.10699084		-0.6025739092948993		-1.6173634233620566		2.5568290261852136
C		-0.97132777		-0.7577958		0.15818669		-1.3869373048928482		-1.7127816367916824		-1.9149795112377694
N		-0.73965225		0.5027403		-0.30149417		-1.4455569134178883		1.5794559531029142		-0.12594024139221607
C		0.4951302		1.22628652		-0.20050718		-3.0011170855248315		1.0991513155843693		1.2213463339025534
O		-2.14945682		-1.15467391		0.27239967		1.9381396996304696		-0.22428930669293762		0.7218960798284251
O		0.4917938		2.41726514		0.09236619		0.37625240269414856		0.07432524336926292		-0.8628950150972479
H		2.3638915		-1.61990167		0.15449509		0.4811286246471583		-0.5950770868110922		-0.0042552270893581245
H		-0.03922945		-2.55826548		0.65016284		1.1399793533021185		2.5442369457999523		-1.6482003600350585
H		-1.69308081		0.9776943		-0.39460958		1.6757687561528898		-0.08221513609839702		0.2913162681614923
H		2.51698507		0.74510295		-0.38180753		1.7422915757212372		0.7995972844413048		-0.025920421860605055
12
Lattice="50.0 0.0 0.0 0.0 50.0 0.0 0.0 0.0 50.0" Properties=species:S:1:pos:R:3:forces:R:3 Energy=-11266.84871802904
C		1.69300909		0.16982592		-0.16229504		-2.1866248350537436		1.6375815498740482		0.7164868388136837
C		1.32242015		-1.11193957		-0.29648384		0.5668150070708821		-0.8522110531831207		0.43424964999742083
N		0.05000518		-1.56790045		-0.14244764		-1.131601619466572		2.2710344590890292		0.28321302529527537
C		-1.08246099		-0.68883719		0.13478214		0.4131979718532011		-0.1549716466086607		-0.5382914975652034
N		-0.75716263		0.62366322		-0.09448455		2.310680972077987		0.4936135414542848		0.06733873343315665
C		0.59023513		1.16356258		-0.01174016		-0.28884857480683557		-1.0144460661120898		-1.0153263603990799
O		-2.18979371		-1.03430723		0.47464964		-0.4081808240646004		-1.035463137208284		-0.018997880970179928
O		0.7165238		2.36580328		0.03482143		0.2821140843987705		1.064981200823705		0.31755972341837474
H		2.06133794		-1.89899409		-0.40189667		0.4383633635709312		-0.4894061368830002		-0.16500964457435802
H		-0.1246022		-2.5157613		-0.34463051		-0.6557956410809982		-1.684242083602521		-0.06850179764152999
H		-1.4397932		1.38075734		-0.11411922		-0.5306575324408563		-0.2226157756706762		0.35342578922052653
H		2.64990559		0.58983101		0.06488627		1.1905376279418343		-0.013854851972714735		-0.36614657902808667
12
Lattice="50.0 0.0 0.0 0.0 50.0 0.0 0.0 0.0 50.0" Properties=species:S:1:pos:R:3:forces:R:3 Energy=-11266.448470667689
C		1.56087679		0.27400079		0.06966068		1.666071840727388		0.4963607651403908		0.21040992639643682
C		1.38170728		-1.05135453		0.10220666		-1.8007345494617795		-1.011397406295933		-0.02596454199018258
N		0.09927658		-1.54812046		0.08907082		-1.4399025434314736		0.7350561683154501		0.1867566518469544
C		-1.00817554		-0.7443158		0.05861416		-1.8866222492599742		1.6903815179039767		-0.6472196237726651
N		-0.81535015		0.63860756		-0.23822529		1.9042150223738536		-0.9060604940854816		1.1220514626072873
C		0.47348313		1.25430076		-0.02525032		-0.13852532837698484		-3.479548365886455		-1.3139499607442708
O		-2.12635693		-1.23353018		0.19642834		-0.03972256621931401		0.09648846081528639		-0.0912024270621626
O		0.78174193		2.38391989		-0.20510154		-0.5657469194118441		3.8243355571486535		-0.04998049634608717
H		2.00864354		-1.89839633		0.09754737		2.1328139092761536		-0.7354625568749501		-0.01717224348720714
H		-0.36702452		-2.46063254		0.1837976		1.3708830284652507		-0.6643100547585227		0.17384812008940875
H		-1.62050782		1.20439014		-0.46839012		-0.5702182220075946		0.26376988068638707		0.12878357291303116
H		2.58151659		0.71924754		-0.05003512		-0.6325114226736811		-0.3096135749529262		0.3236396109715192
12
Lattice="50.0 0.0 0.0 0.0 50.0 0.0 0.0 0.0 50.0" Properties=species:S:1:pos:R:3:forces:R:3 Energy=-11266.702471433533
C		1.6633894		0.29653426		-0.12319027		-0.5846242156455913		0.9850194823457579		-0.7226836601368274
C		1.47531614		-1.05257537		0.01421568		-1.7979119410321294		1.6251485179279284		-0.3365608439784887
N		0.17932892		-1.54698269		0.16650698		-0.3408327832381413		-0.9082661406099205		-0.18688921792393676
C		-0.98393168		-0.77446347		0.12946959		-3.1773091774866558		-0.7893888223386035		-0.24841941802746936
N		-0.70894733		0.55838752		0.23164201		0.8221582515403377		-0.18580138419291992		0.03399995915603505