12
Lattice="50.0 0.0 0.0 0.0 50.0 0.0 0.0 0.0 50.0" Properties=species:S:1:pos:R:3:forces:R:3 Energy=-11266.83100588667
C		1.6200416		0.26953384		0.04294458		0.35352282265235957		-2.3620460588774597		-0.13916604727504528
C		1.42730068		-1.13654936		0.05235804		-1.5390291103163583		3.119912591294799		-0.3183504404725863
N		0.12251955		-1.55092762		0.10111386		0.0871597787789507		-1.4901318711377305		-0.3079234860265575
C		-1.03738202		-0.71248648		0.06743731		0.17259218763626039		-1.0484447397165635		0.5582140500622633
N		-0.76763987		0.65452646		0.14044464		0.5837802253346871		-1.526039691654587		-0.4691868276635722
C		0.54959019		1.24094599		-0.05142537		-1.816755607237038		-0.15208512055539208		0.0278254550079924
O		-2.14917727		-1.22210531		0.0364745		0.09754909227526999		0.3959889615913461		-0.230980242614112
O		0.59744529		2.43463346		-0.30076037		0.6820111741579732		0.13235437235125086		0.04972498011779966
H		2.09370963		-1.98669685		-0.11494916		0.8260529585498965		0.35966184557731545		0.1958302804535646
H		0.0274979		-2.58607953		-0.08573293		-0.7741883578358368		1.3733390490117325		0.42762926514592053
H		-1.61332067		1.1464202		-0.1509296		0.07031391112207983		0.7611046825336046		0.2011912875737327
H		2.58921319		0.67068666		-0.13840591		1.256990770615569		0.43638592815962185		0.005191777112662732
12
Lattice="50.0 0.0 0.0 0.0 50.0 0.0 0.0 0.0 50.0" Properties=species:S:1:pos:R:3:forces:R:3 Energy=-11266.475886706618
C		1.61863075		0.16839577		-0.04079329		0.2698528021412158		-0.5539184566538862		0.4678295423253454
C		1.30575475		-1.15721955		-0.03591822		-1.7803486841820937		0.8619293087645372		-0.6965918485420943
N		-0.0262597		-1.59013467		-0.08457207		1.329845394420977		-3.084948417045864		-1.2539140343533175
C		-1.06723827		-0.73604678		0.04574221		-1.7041568199460893		2.9631923888747704		1.0933552778159195
N		-0.69475961		0.66740251		-0.03758421		-1.7986137493403747		1.7019817181267425		-0.3703963553788257
C		0.61301658		1.20915515		-0.11863279		-0.6374127679776563		0.7453363641952615		0.7871671835527443
O		-2.20114309		-1.07796191		0.34193478		-0.11625463882045202		-0.21146695831204923		-0.6252764927539046
O		0.79424444		2.4331059		-0.10982335		-0.052804133216985946		-0.8713797582447418		-0.2687050102853885
H		2.09092729		-1.86797797		-0.09299269		0.8016262961812464		-1.3313785946348267		0.2337605821084324
H		-0.34339231		-2.61806378		-0.35226283		1.0459413594505702		2.4940551835014566		0.9945073156653599
H		-1.462196		1.53049508		-0.01005321		2.0182039537009318		-3.1674906488834718		0.03598922164170675
H		2.6326274		0.41303547		0.24921313		0.6241209875887107		0.4540879217341338		-0.3977253303739149
12
Lattice="50.0 0.0 0.0 0.0 50.0 0.0 0.0 0.0 50.0" Properties=species:S:1:pos:R:3:forces:R:3 Energy=-11266.615312632117
C		1.64141533		0.25159703		-0.00908342		2.3474429130520504		2.112738170455071		0.18688829232681275
C		1.29605644		-1.04095003		0.03251806		2.025851494249764		0.14651210027176462		0.42119024590866244
N		0.10363037		-1.54766888		0.11197229		-3.597282366021377		-1.9818027899169808		-0.5115571158781618
C		-1.08664126		-0.77389339		0.06909738		3.4124270963553767		1.722414634593566		0.5647096849902729
N		-0.6819623		0.57115304		0.11561696		-1.3153980574447746		0.15255198146032717		-0.6054728794872793
C		0.66765362		1.26619326		-0.10616132		-3.9992064620600867		0.7236348654479288		0.11195009797320944
O		-2.18477834		-1.2378401		0.08361252		-1.9433039145176623		-0.6391038339232117		-0.15330798862238856
O		0.60326579		2.47815642		-0.29366844		1.0206899900444326		-1.113019228760945		0.23813171452654078
H		2.06577281		-1.75156355		0.13131324		1.5094393129238273		-1.3030045176426122		0.012046595146848239
H		-0.07155636		-2.55726029		0.01625347		0.2470498428163183		0.17989216646502929		0.1580385098349227
H		-1.5540009		1.12561684		0.04347223		0.6938923959519995		0.5153434766021494		0.03889929899957499
H		2.69083623		0.60519622		0.14109539		-0.40160224534986766		-0.5161569736300241		-0.46151645571901445
12
Lattice="50.0 0.0 0.0 0.0 50.0 0.0 0.0 0.0 50.0" Properties=species:S:1:pos:R:3:forces:R:3 Energy=-11266.749612700201
C		1.71508464		0.24637719		-0.14015499		0.12871183913592085		-0.3639544050840084		0.40171470540043414
C		1.40575024		-1.0739714		0.05504589		-1.0756759613709457		-0.08413569870864265		-0.14460249056081972
N		0.10084804		-1.54097748		0.22049147		1.1397262024887036		1.0300853150736964		-0.2386965858824954
C		-1.02661636		-0.7116012		0.06903061		-2.413002957345246		-0.006620384851500298		-0.7400122781159287
N		-0.74783578		0.56108131		-0.33430092		4.240098255788344		-0.5421000211981049		0.8303009351284498
C		0.61009965		1.17466843		-0.07776567		-3.1390648412964377		0.9336787696038845		-1.2009249873997805
O		-2.18846371		-1.09881761		0.18123253		0.5348460651152238		-0.7012639028696288		0.2382241199727538
O		0.51005684		2.38942253		0.02440551		1.5436301507756567		0.12788399535262426		0.1525150604194919
H		2.12518048		-1.88258984		0.0939795		0.6739348764524771		-0.2563516311139954		-0.06003196689214502
H		-0.05351054		-2.5354083		0.10838526		-0.31321491909623805		-0.37555805058495834		0.30755617823451525
H		-1.41489606		1.29250519		-0.49392315		-1.07388518804631		0.27468555041388987		0.22393721983137907
H		2.75196881		0.60023139		-0.27472226		-0.24610352260114918		-0.03634958745531894		0.23002003844208288
12
Lattice="50.0 0.0 0.0 0.0 50.0 0.0 0.0 0.0 50.0" Properties=species:S:1:pos:R:3:forces:R:3 Energy=-11266.70141873988
C		1.57277098		0.25329771		0.21579033		0.19095798861487054		0.48015721046551624		-0.7976300820204218
C		1.37088142		-1.07517575		0.02480391		0.028988313528115962		-0.8877262148311499		0.822550653298853
N		0.11436281		-1.62165239		-0.06451809		0.10402462117686366		5.839290047879582		0.019242495721229182
C		-1.00355789		-0.74977292		0.08742947		-0.11294424070645208		-0.15686680672005865		-0.18036576366014467
N		-0.70469755		0.63654921		-0.01190666		-1.0429961094019895		-1.8453871030738507		-0.5686847646834324
C		0.54798933		1.23377163		-0.08442262		-1.1721308435794555		1.6186495405658599		-0.13119182236350196
O		-2.13501908		-1.17201216		0.25056348		0.05539292552869995		-0.01583660683726952		-0.19460293866713546
O		0.58647222		2.44988948		-0.36225658		0.9271676052130167		-1.5293241730491152		0.3966890215494677
H		2.16055183		-1.83689315		0.09742503		0.288872691754122		0.18005075210560864		-0.08879021811288357
H		-0.07357474		-2.54521526		-0.03824713		-0.7397701316238768		-4.337481666178418		0.11648706654270187
H		-1.48416661		1.13087033		-0.45547636		-0.12776896419893558		0.4291514610384074		0.47713935246476397
H		2.53401308		0.68282944		0.32659289		1.600206143695021		0.225323661479012		0.12915705135256672
12
Lattice="50.0 0.0 0.0 0.0 50.0 0.0 0.0 0.0 50.0" Properties=species:S:1:pos:R:3:forces:R:3 Energy=-11266.778788995125
C		1.60990582		0.20404462		-0.03700527		1.1122256320712367		2.285746516842696		-0.07123827411658505
C		1.37815567		-1.10871074		0.03597		-4.566159640212757		1.4888923937445642		-0.828298714283042
N		0.04578411		-1.58725777		-0.05921053		1.4797128871113803		1.0988645347421155		-0.015606493107829661
C		-1.08747812		-0.76836451		0.00346054		0.9887588433046711		2.0300891349937658		0.5984437406614065
N		-0.75174671		0.63218138		-0.2544703		1.5783875054894396		-0.8235030413173907		0.561843830606107
C		0.58311846		1.25521382		-0.09314825		-1.3491568985500069		-1.9798264857910453		-0.35682252497737105
O		-2.17595458		-1.16071978		0.35917666		-0.5219257062833159		-0.14077586636193784		-0.4660883912909693
O		0.72827782		2.46125577		-0.01929056		-0.0830450367641914		-0.12798637667895157		-0.03587496181895471
H		2.10548751		-1.81351263		0.05495094		2.660392905682573		-2.6576168342194357		0.17869871181775118
H		-0.1012653		-2.56692649		0.0746658		-0.39927755675086946		-0.9508412428992272		0.2247218176601597
H		-1.42462948		1.34495022		-0.02060768		-1.1824255919029392		0.1215423695016365		-0.004355962909687216
H		2.61510589		0.64268932		-0.06596509		0.282512656804779		-0.3445850511347282		0.21457727318107703
12
Lattice="50.0 0.0 0.0 0.0 50.0 0.0 0.0 0.0 50.0" Properties=species:S:1:pos:R:3:forces:R:3 Energy=-11266.759139488588
C		1.64707364		0.2106698		-0.20008651		-1.1972830198271374		-1.4927228231760672		0.902966737120561
C		1.32433046		-1.13655353		-0.03980447		-0.43454465836966577		2.6935357619017806		-0.30352839092734996
N		0.05644839		-1.54007225		0.06127498		-2.5432333414072197		-1.5355137952835163		0.6632642842745856
C		-1.12535722		-0.67159887		0.08416868		4.70037477131563		-1.6576706584313667		-0.101385332399829
N		-0.71743177		0.58588319		0.06772784		-0.2537483892027345		3.315283929841045		0.29793320773480886
C		0.63657535		1.20975826		-0.01537815		-1.351110114169905		0.7841700486431572		-1.506512266285352
O		-2.20542102		-1.14160286		0.13150539		-3.472450167230719		-1.0690472461453293		0.17974129413381665
O		0.73935605		2.43556183		-0.12361257		-0.18789369649173074		-1.1567477279108855		0.6581157016943765
H		2.06134422		-1.87464898		0.00932686		1.6011574004281848		-1.6164624059839015		-0.08119019154975003
H		-0.26960245		-2.51287317		0.29744483		0.894335698205412		0.8115633526383647		-0.43658277181465993
H		-1.55697727		1.18622704		0.14825697		0.6909546535245359		0.538492197874925		-0.1295448765475244
H		2.63963397		0.54197983		-0.33604196		1.553440863225349		0.38511931460973126		-0.14327734401162082
12
Lattice="50.0 0.0 0.0 0.0 50.0 0.0 0.0 0.0 50.0" Properties=species:S:1:pos:R:3:forces:R:3 Energy=-11266.61448771595
C		1.59930829		0.30925821		0.12400269		1.118817580522205		4.2437426916199845		1.2796806528251508
C		1.43838908		-0.98119786		0.04018678		-1.5966937597197386		-3.721480530782093		-1.255692003584404
N		0.14956951		-1.51524588		-0.20237776		0.8149683159252005		-1.9785235535728225		0.9980022161394112
C		-1.00201169		-0.76151853		0.11840285		-0.6549663060578907		-2.1147078411349516		-0.7070494505373401
N		-0.82587279		0.56435827		-0.01173182		1.0020437845593118		3.327058605121686		0.07515457839237043
C		0.46626962		1.23017201		0.01531731		-0.6842118841644172		1.1610565367893109		-2.562771513987506
O		-2.07745164		-1.29070018		0.32984471		-0.509010901034152		-0.3146019263865578		0.09523509946526024
O		0.59420411		2.41997576		-0.35528721		-0.544385269075208		-1.6635695917467686		1.396905008899184
H		2.21797825		-1.74293835		-0.03821241		0.42840003043990355		0.019401081361808514		0.16865495458106
H		0.02729796		-2.60454541		-0.20105904		0.0995805208521463		2.5966855468771963		0.2027977128045039
H		-1.66659684		1.17356731		-0.19892568		0.8873780874683997		-0.7332244116070462		0.5014979834447998
H		2.5509806		0.8850217		0.26557752		-0.3619201482936976		-0.8218365551176838		-0.1924153412866147
12
Lattice="50.0 0.0 0.0 0.0 50.0 0.0 0.0 0.0 50.0" Properties=species:S:1:pos:R:3:forces:R:3 Energy=-11266.377002311685
C		1.6688472		0.1817806		-0.26912016		0.818224669451571		0.4839613118010473		-0.6223732031082793
C		1.39571246		-1.17729603		-0.29046152		-3.1098707366744183		1.7792894411177955		1.137817569796945
N		0.00547778		-1.58182522		0.04533391		2.126093251402886		-0.32595139263284384		-0.9178243193109467
C		-1.12658969		-0.67816293		0.12549969		2.963053497884107		-2.50813212736187		0.5044525408866826
N		-0.6768494		0.57426361		0.26035424		0.6972833724378502		2.3401351694918517		-0.8197641431570394
C		0.57429841		1.14907523		-0.08030884		1.07557424853143		2.8310052924926516		1.0935840545717357
O		-2.2844895		-0.96856901		0.21115104		-1.5928894526959574		-1.083549347618035		-0.09204158369919703
O		0.78788052		2.41085869		-0.06398723		-1.1067674886751104		-3.3808072073595925		-0.27158721688541176
H		2.0921544		-1.97404975		-0.51615229		0.35298170828925446		-0.5051459673987488		0.08006939627670621
H		-0.08538091		-2.5987779		0.2293135		-0.534817988669129		0.6944228145261161		-0.35529426128151576
H		-1.51241002		1.13768604		0.26357654		-0.27253338283439354		1.3871060721017918		0.20003799355722382
H		2.65596358		0.79406258		-0.433056		-1.4163316470260272		-1.7123340591601643		0.06292317235309607
12
Lattice="50.0 0.0 0.0 0.0 50.0 0.0 0.0 0.0 50.0" Properties=species:S:1:pos:R:3:forces:R:3 Energy=-11266.871067011985
C		1.69387862		0.28043435		-0.02647519		-0.8179351632400076		-2.481559622327404		1.0818805474255182
C		1.41759538		-1.09541878		0.15494495		-1.4386066560358057		1.932659701857805		-1.3419781729444822
N		0.08447037		-1.52787167		0.17199775		1.2765738346563689		-1.7849885482985377		0.2519840982402582
C		-1.04362198		-0.75924153		0.07576045		-0.6780753294984588		1.9993591562106496		-0.47259420778734273
N		-0.76704927		0.63257297		-0.03164272		0.8006225375223265		-1.3277513851941054		0.21485510658446552
C		0.5284183		1.18573944		-0.08657923		0.23025267185258255		2.846816651097261		-0.37364509843995447
O		-2.1738625		-1.1905066		0.02041909		-0.6923891748005546		-0.6406908216143787		0.15714659416182006
O		0.62748962		2.42976689		-0.2361006		0.09506931473593865		-1.7714802810266999		0.26509991233151825
H		1.99998688		-1.99452113		-0.0284461		1.2842021947759097		0.11474257307426675		0.481758390645918
H		-0.05800121		-2.57449803		0.17403782		-0.1775406869714974		1.394776289780162		0.02983317801408174
H		-1.5617386		1.28483036		-0.14629628		0.35583743252711875		-0.3389678078773984		0.07507158318358474
H		2.71476701		0.6838462		0.07002713		-0.2380109755239207		0.0570841457404424		-0.3694118799933227
12
Lattice="50.0 0.0 0.0 0.0 50.0 0.0 0.0 0.0 50.0" Properties=species:S:1:pos:R:3:forces:R:3 Energy=-11266.543176683186
C		1.63333475		0.26008742		-0.25555098		-1.3047700427345872		1.4356576521766664		0.16519538106390813
C		1.35191738		-1.00997582		0.08610963		1.102534321650541		-0.7175863453528756		0.9904890414397467
N		0.08409735		-1.50120633		0.24316924		1.0443848650424328		-3.214498538643758		0.2963524421131975
C		-1.08560377		-0.77688578		0.11558963		1.7705768468116099		1.375905215615971		-0.19730064290710725
N		-0.78570934		0.56877119		0.17727657		2.121922922138624		2.2865096716714373		-1.093308740849407
C		0.52982206		1.2269088		-0.21391549		-0.12219846359636789		0.32092971970274803		1.323489524658692
O		-2.15490883		-1.2763798		-0.02753278		-2.56725783182549		-1.0176940892643442		0.11534354271805751
O		0.74155493		2.45011274		-0.20446294		-1.4267003402753062		-1.5959760105721361		-0.2731372835357436
H		2.20928789		-1.60596884		0.47141894		-0.5045087452009346		-0.4210844193041514		-0.44353174364518166
H		-0.0292277		-2.55771532		0.40472314		0.03128538847958141		1.9017028489351826		-0.41284279966789583
H		-1.51286878		1.26475303		0.2611151		-0.8162502679419459		0.10367032316661993		-0.08827640886493653
H		2.56845631		0.79877233		-0.10854004		0.6709813474518432		-0.4575360281313605		-0.3824724153674547
12
Lattice="50.0 0.0 0.0 0.0 50.0 0.0 0.0 0.0 50.0" Properties=species:S:1:pos:R:3:forces:R:3 Energy=-11266.523143304164
C		1.66869263		0.2467772		0.12589596		-0.28220931805841803		-0.5913334063989335		-1.1609052016595363
C		1.40442067		-1.13475533		0.05185985		0.1811660452179709		1.2343124583700371		0.4729655779223181
N		0.07234357		-1.50757485		0.16973577		2.618160582861522		0.024494436646952167		-0.3355021151348156
C		-1.05487936		-0.74971751		0.02424079		0.8763184873881142		1.5884530142585447		0.3292468783487348
N		-0.78807666		0.58458203		-0.21737586		2.892560586562657		0.6092924588636064		0.6951148526424963
C		0.52662705		1.2479667		-0.04531809		0.2308114239831062		0.9136848432841514		-1.0693362895583305
O		-2.14022309		-1.22585622		0.15956223		-2.56927249681001		-0.9025574175035016		-0.14571408128468596
O		0.65467744		2.49415334		-0.21093355		-0.45615693983865724		-3.2777827452972774		0.7285672182555584
H		2.12485309		-2.06755402		-0.03676614		-0.9719128213816131		2.087304921214067		0.21938384762396682
H		-0.04454005		-2.45290073		-0.04303036		-0.905308857798728		-2.3351390019047287		-0.031037122762098582
H		-1.56544111		1.20494815		-0.23818175		-1.139425691955777		0.8195339265834746		-0.13344899379451033
H		2.68792997		0.65390397		-0.07346196		-0.4747309487481058		-0.17026348811639147		0.43066537797884064
12
Lattice="50.0 0.0 0.0 0.0 50.0 0.0 0.0 0.0 50.0" Properties=species:S:1:pos:R:3:forces:R:3 Energy=-11266.632331859622
C		1.67553189		0.15852044		-0.17840522		-0.25463819657127695		1.6217058108472586		0.6244089511384008
C		1.27679128		-1.13449261		0.00838774		1.6820956752940186		2.245055673187549		-0.040413884426820035
N		-0.00807642		-1.50195183		0.02927155		-0.35153417723143726		-2.401164364440986		-0.5806441994344369
C		-1.1070545		-0.72705242		0.02745143		-0.2256878325252451		2.0647515645802756		0.6563716196024408
N		-0.66704396		0.64328318		-0.11348607		-3.5265128554260383		0.0006590251522907727		0.9415071615463347
C		0.58666588		1.21659048		-0.14499545		2.3170432181760154		-1.218902500384871		-0.018019370543920478
O		-2.2383241		-1.13926004		0.26798802		0.5581502867048318		0.7515070116886209		-0.6305375353846804
O		0.8107951		2.40943632		-0.01671587		-0.4439016225403461		0.23299665594875446		-0.08976919133770503
H		1.98739039		-1.84086743		0.35858824		0.9412561704595425		-1.3706620164408634		0.00016208234082557083
H		-0.22145564		-2.48076446		-0.07066122		-0.12648762924693951		-0.8640883669004011		0.3278792057538942
H		-1.39943669		1.27369739		0.28053474		0.32887705087563285		-0.07886308611381691		-0.727549421373591
H		2.69665641		0.61497859		0.03798146		-0.8986601393908208		-0.9829953557017487		-0.46339546930280484
12
Lattice="50.0 0.0 0.0 0.0 50.0 0.0 0.0 0.0 50.0" Properties=species:S:1:pos:R:3:forces:R:3 Energy=-11266.36359009517
C		1.59650039		0.13737906		-0.11109161		2.221363420714734		4.532573320127027		0.01020784503795206
C		1.3581496		-1.15489772		0.0985064		0.4887472659968968		-1.0200776561248417		-0.04848647974382
N		0.03644733		-1.54478877		0.06042074		2.1800320124277137		-4.375313803116078		0.034089999187375646
C		-1.00242552		-0.72199565		0.10061563		-1.791468756607814		2.5221390343732337		0.5842045601939804
N		-0.69864427		0.65890237		0.41862902		1.370949260081679		-1.389888365634485		-1.191230437389151
C		0.52924694		1.24938241		-0.12372078		-0.8396174301359861		-1.2702921669301914		1.0483651383638994
O		-2.13095798		-1.12754318		-0.07940482		-1.2303664835642212		-0.06045640459556326		0.12365941581248317
O		0.65044078		2.43965649		-0.37134501		0.22258039729171425		-0.8604661453997369		0.17919344348053126
H		2.18966263		-1.90736528		0.29037252		-1.0599551055962388		0.5564658027832697		-0.33554232718764726
H		-0.19857961		-2.59261138		-0.06146273		0.24387375912942383		2.0940869256078303		0.2163574021387863
H		-1.50672312		1.17025554		0.76453754		-0.21438536604403352		0.5660113316569345		-0.45477810865626606
H		2.6500214		0.65337422		-0.07219578		-1.5917530765379928		-1.2947818213253364		-0.16604050266018613
12
Lattice="50.0 0.0 0.0 0.0 50.0 0.0 0.0 0.0 50.0" Properties=species:S:1:pos:R:3:forces:R:3 Energy=-11266.277617552363
C		1.73152454		0.24731675		-0.15227725		-2.5623406999483445		-1.2816676527400745		0.6664037040309571
C		1.36631605		-1.09348343		0.061175		-0.15283223170065058		0.7332954254752823		-1.0576434782011015
N		0.08940107		-1.64911837		0.14208129		-0.7525346816065775		1.9453722641353737		-0.7543963145332615
C		-1.06960103		-0.67572876		0.0235357		-0.9809313255372824		-2.3625542631206		1.988701625236619
N		-0.74030605		0.58643013		0.44702282		2.42976454424177		-0.2041727901763366		-1.6506004847996627
C		0.61587293		1.2152721		-0.08721002		-1.0071197077652865		-1.6425816255379175		1.181202775258005
O		-2.24483884		-1.05009445		-0.0960227		1.6742811673084281		-0.05192723278611715		-0.5078197089576214
O		0.6276772		2.38372554		-0.29968958		0.14271375820722734		1.9694168605800604		-0.4405935898412186
H		2.18131358		-1.78568106		0.00768859		0.6889104722761733		-1.0889650163905815		0.05678265818832935
H		-0.11572499		-2.66258249		-0.08970596		0.3888076134606369		1.41073759511886		0.36430880593837695
H		-1.60829919		1.13591702		0.44857114		0.3777054359126473		0.6351248975753686		-0.14573367309047736
H		2.75113671		0.56463893		-0.42924693		-0.24642434484874148		-0.06207846213331763		0.2993876293489936
12
Lattice="50.0 0.0 0.0 0.0 50.0 0.0 0.0 0.0 50.0" Properties=species:S:1:pos:R:3:forces:R:3 Energy=-11266.847102818152
C		1.66126736		0.27998014		-0.2275112		-1.5226250610200118		0.5738457399806908		0.35491394370767493
C		1.40009024		-1.04083939		0.01501113		-1.6109305747722922		0.883662277814086		0.02221957602646282
N		0.11363551		-1.56116268		0.13292732		0.3383832932935899		-0.3747261958807911		0.03635555241456251
C		-1.0444572		-0.75759411		0.10823966		-0.8768907120989984		-1.862829415233017		-0.3433495332403703
N		-0.77090549		0.59761882		0.03957563		0.36998137933489733		0.23927456986437334		0.18580513800347842
C		0.5192099		1.23637046		-0.14789813		0.35527389814478766		3.4393331248868586		0.28583719598595125
O		-2.16010886		-1.31543687		0.12917822		1.3509979112296504		1.4338299578111962		0.2352524904061393
O		0.63188577		2.52252779		-0.13138373		-0.5991176267897438		-4.411097130819757		-0.11571558133984464
H		2.20196608		-1.66575124		0.27422835		1.4078460811255342		-1.6026660723182489		0.09303737193843788
H		-0.11486657		-2.58625572		0.26613211		0.5764295443523477		1.3273373861693634		-0.2190144829494268
H		-1.59188246		1.1435322		0.33463631		0.3074625386588036		0.4381399861316716		-0.45646367244113956
H		2.67686873		0.69921311		-0.23431383		-0.09681067145856466		-0.08410417698436407		-0.07887804993398831
12
Lattice="50.0 0.0 0.0 0.0 50.0 0.0 0.0 0.0 50.0" Properties=species:S:1:pos:R:3:forces:R:3 Energy=-11266.221431089461
C		1.61136266		0.31371826		-0.20019317		-3.436992495448502		-1.6292029418634402		1.2912346760358413
C		1.37374397		-0.99901416		0.0062677		0.10789217733745149		-0.0541003291450285		0.10072805559766135
N		0.14395846		-1.51490037		0.28778463		-0.2902299770923489		5.481736455440435		-1.2975731137189574
C		-1.02515787		-0.77229594		0.15190864		1.5065880624053953		1.70633747534818		-2.077085866166502
N		-0.80654781		0.58596165		-0.29773849		0.8341224171210871		-1.5283592380473408		1.8872987064914337
C		0.43061762		1.20233339		-0.03479583		2.717728196775995		2.047112614454321		-2.3619825012082782
O		-2.11216863		-1.26226775		0.14252988		-2.215471429377762		-0.9345573669628139		0.777810425070314
O		0.71331007		2.41388495		-0.07360201		-1.8589136251778564		-0.4804104641230561		0.6963407546111771
H		2.10500988		-1.75277668		-0.08272522		1.5586098603643483		-1.164150345176294		0.04004719369952716
H		-0.07503799		-2.3712481		0.57623646		-0.49390263628934866		-5.2908505091350495		1.4308632133405137
H		-1.67665491		1.09614684		-0.2825514		-0.4778727339193497		0.7721563121942111		-0.07451159692356239
H		2.57355205		0.69864265		-0.25335365		2.04844218330089		1.0742883370158764		-0.41316994682916874
12
Lattice="50.0 0.0 0.0 0.0 50.0 0.0 0.0 0.0 50.0" Properties=species:S:1:pos:R:3:forces:R:3 Energy=-11266.468065732412
C		1.6579532		0.32306087		-0.01908583		-2.7328942599189863		-1.7391293245691402		-0.26710403579323644
C		1.42576003		-1.0458575		0.11766275		1.0098831808231252		1.8712678271022483		-0.714378791363765
N		0.17122739		-1.61888222		0.05417649		-0.7469934401575408		-0.5852400976874911		0.24055425931037122
C		-1.01109932		-0.80267629		0.0511301		-1.3361712851208565		2.081962580302566		1.4904121728001163
N		-0.78160536		0.62892283		0.25437292		3.063196010456711		-2.0573989295595636		-1.464496687457506
C		0.47600027		1.21730986		-0.17373317		-0.2813731953230678		-2.3048708446644275		2.303897990665037
O		-2.18239536		-1.15124834		0.05522345		0.75760129741925		-1.3151530827392885		-0.2975906339548025
O		0.58696645		2.38846652		-0.35470891		-0.08342756548671723		2.888288287348567		-0.8352013034132386
H		2.29377388		-1.70634481		0.13461564		0.056584528981730074		-0.5362627943576367		0.2506142659187949
H		0.09416878		-2.68920772		0.16045987		-0.2672946059566564		2.1396366399433737		-0.3171587341754313
H		-1.51392129		1.29242381		0.50276841		-0.6065519200456182		-0.30542293397399856		-0.37928882405944336
H		2.56422124		0.89349918		-0.04732403		1.1674413057506896		-0.13767727572314747		-0.010259678476896277
12
Lattice="50.0 0.0 0.0 0.0 50.0 0.0 0.0 0.0 50.0" Properties=species:S:1:pos:R:3:forces:R:3 Energy=-11266.632917097544
C		1.62943154		0.18706839		-0.06345055		1.005136101706484		-0.2845684594392542		-0.06902594272402841
C		1.3223946		-1.1212847		-0.05760058		-0.9695871557634281		0.06486903461806448		-0.4714636423224345
N		0.04345663		-1.54958018		0.0327548		-2.1251694026290053		0.6034761093804908		0.795951871590478
C		-1.06282066		-0.65301643		0.12897818		0.3916359297392181		-1.3205261740441312		-1.2426650468170481
N		-0.67091877		0.59454887		-0.21972214		-1.8350801162995052		2.846249620014684		0.4692737309491037
C		0.57292846		1.16335003		-0.0637214		1.3787528665900313		-2.9190481937720265		0.04488909509931641
O		-2.20861502		-1.02264558		0.2594365		-0.6348610509729651		-0.34276825824649587		0.5904257041526603
O		0.72048978		2.33367421		-0.01695263		0.2640376353655364		4.383652147651793		0.08387776564342023
H		1.94395068		-1.87652494		-0.4374074		1.8624812878702668		-1.4380268722817418		0.05733637095673346
H		-0.27512039		-2.49201257		0.21809154		0.368855441855609		-0.6754123351506371		-0.0760355925882348
H		-1.33156952		1.41803238		-0.16297844		-0.06573127976113655		-1.3560263204499265		-0.147417282836978
H		2.66800847		0.46280747		-0.2056301		0.35952974229889517		0.43812965029712025		-0.035146979680925644
12
Lattice="50.0 0.0 0.0 0.0 50.0 0.0 0.0 0.0 50.0" Properties=species:S:1:pos:R:3:forces:R:3 Energy=-11266.725265914913
C		1.57053856		0.21368863		-0.07612502		0.871274908659417		-0.9580249564448088		-0.013196289618985965
C		1.31376527		-1.1185504		0.01752643		0.12354289341898354		1.2754881606519748		-0.27229781836633454
N		0.06809055		-1.63399829		0.01089827		-0.3224307297055077		0.9140199608651033		-0.024927564678923545
C		-0.98923115		-0.74700969		0.03579564		-1.1022298001967439		1.2553385283271594		-0.7875017869130717
N		-0.75408294		0.62696545		-0.33185449		1.2579850161929362		-1.3365080482078067		1.1186890253660935
C		0.51716656		1.21725692		-0.07645907		0.49394634504242657		1.7223048484902466		-0.5597296639307572
O		-2.12867397		-1.04929279		0.28232926		-1.3289469481459437		-1.0634574108472823		0.5595895388105956
O		0.72490407		2.43708502		0.0481141		-0.7290429751772962		-1.418411463763664		-0.06970414830561104
H		2.04292244		-1.87662684		0.11869505		1.579412192927774		-0.8654370133321373		0.0513733657515257
H		-0.00772378		-2.53433858		0.44726114		-0.845349653124942		-0.8190229455489618		0.13917972554365557
H		-1.60342707		1.12476548		-0.0560333		-0.0444375065469274		0.5243139525514957		-0.25436385986813465
H		2.64001826		0.43051905		-0.11413755		0.04627625665582359		0.7693964901028062		0.11288947620994852
12
Lattice="50.0 0.0 0.0 0.0 50.0 0.0 0.0 0.0 50.0" Properties=species:S:1:pos:R:3:forces:R:3 Energy=-11266.3545419806
C		1.59297389		0.29036096		-0.15688427		-1.3753870354927158		3.504177991135574		0.10720713262156371
C		1.42468052		-0.99188422		-0.06434709		-1.1321877795563788		-3.705286129234334		1.1150413499445189
N		0.18182005		-1.56000625		0.261513		0.5014948466989907		3.8055846563443945		-0.17260334622381085
C		-1.00790357		-0.83235584		0.20273786		2.1031233760632935		1.3283399106987845		-1.1170338005980622
N		-0.69942195		0.52183882		0.28901168		0.3016607930414223		1.3102585251475558		0.4341131244216303
C		0.43054988		1.25490527		-0.04802309		2.9123195654790806		-0.017925936656458533		-1.1260926196506882
O		-2.11042074		-1.19509361		-0.10223717		-1.37575290346701		-1.3365023917809378		0.5957001679417341
O		0.51457826		2.46674273		-0.33998078		-0.9469918387266825		-1.9077782627688944		0.9975309329371057
H		2.27973578		-1.68198124		-0.14326693		-0.22532422712169892		-0.216423170956653		0.04551726701414039
H		0.05462854		-2.48712956		0.23852177		-0.4101670526485879		-4.957085071315177		-0.30052143440383594
H		-1.47255739		1.12631772		0.31813219		-2.1135460624781395		1.003724000449691		-0.03921580179392188
H		2.58442283		0.60872375		-0.25347848		1.7607582667863637		1.1889158275143918		-0.5396429207883116
12
Lattice="50.0 0.0 0.0 0.0 50.0 0.0 0.0 0.0 50.0" Properties=species:S:1:pos:R:3:forces:R:3 Energy=-11266.84813709974
C		1.61292974		0.14288594		0.01112904		-0.40224764365561055		1.058773375179198		0.16184081139826825
C		1.3112107		-1.17796648		-0.06715138		0.46548886146492685		-0.19626659665340754		-0.14653390322624116
N		-0.00318867		-1.60910495		-0.1309501		-0.1662502532528979		0.560410543459587		-0.2171122780154739
C		-1.0639024		-0.67928463		0.04241572		-0.0035039507570416312		-1.3830683603365745		0.8690697763556027
N		-0.66951909		0.65205279		-0.06753431		-2.0174776170689004		-1.6944468947387892		-0.14115978348014968
C		0.5847412		1.20491068		-0.10205738		1.4232391212521562		1.4822506687371493		0.6152942877259598
O		-2.20454202		-1.03853414		0.36778175		1.1138502607121132		0.5105935692720738		-0.8266497115845666
O		0.77323997		2.43633641		-0.11985632		-0.15915349441491028		-1.5745913231515245		-0.08707405820085547
H		2.20339772		-1.85135532		-0.12056748		-0.9763315192074825		-0.3366517067628284		0.2858415154391966
H		-0.30895876		-2.58558268		-0.10647928		0.29292834981913246		0.004219437333896642		0.01886953150231806
H		-1.54464253		1.13526008		0.06994049		-0.21394920411037796		1.5140325372296342		-0.02518621765302019
H		2.58428075		0.48435386		0.35626366		0.6434071920630179		0.05474469900952255		-0.5072000216831007
12
Lattice="50.0 0.0 0.0 0.0 50.0 0.0 0.0 0.0 50.0" Properties=species:S:1:pos:R:3:forces:R:3 Energy=-11266.903053287364
C		1.66525784		0.26623037		-0.02412278		-0.3802840980780598		0.42610521805918566		0.03602794245472758
C		1.37646523		-1.04416448		0.0769637		-0.13974799075573155		-1.5137436995048823		-0.0960900940975276
N		0.05786544		-1.52461269		0.18349966		1.6581888385546215		0.8678480909960424		-0.566602788219173
C		-1.09223977		-0.74114465		0.0137216		-0.06018062807467254		-0.5860973548905059		1.1227770279083813
N		-0.757222		0.62569119		0.02906633		-0.7739993817563529		0.5704087921710145		-0.04679407682464132