12
Lattice="50.0 0.0 0.0 0.0 50.0 0.0 0.0 0.0 50.0" Properties=species:S:1:pos:R:3:forces:R:3 Energy=-11266.389623665336
C		1.69340732		0.14775686		-0.08843951		0.5697271927333106		0.9501697736078248		-0.04258482105910873
C		1.33097918		-1.15543874		-0.21067323		-0.48486232917920263		0.9041640998445849		0.184943201392781
N		0.02119075		-1.50860104		-0.11270505		-1.4450679924481642		-2.3290999434691657		1.1704978331424005
C		-1.11641374		-0.64793915		0.16274093		0.282374228612678		-0.3314073248802848		-0.5405675923151914
N		-0.75285108		0.66542934		0.36727663		0.2800119504860327		-0.4653461138195806		-0.6142385413619085
C		0.6995974		1.15442395		-0.00679083		-3.984192094001306		3.9904268648065346		0.27742680914075235
O		-2.25481972		-1.11372074		0.12051587		0.7556180513148841		0.3342654145330215		0.40199217884938554
O		0.75919795		2.38630488		-0.22828436		0.679751020247343		-2.6333860899087		0.566139526858609
H		2.06869688		-1.86738741		-0.52652627		0.4872178710156676		-1.1143632472070613		0.09111958611956425
H		-0.25176596		-2.51281216		0.17333465		0.6411590194929374		1.6273916511358895		-1.060952539341478
H		-1.66466105		1.24295826		0.41152888		2.1462123390226098		-0.20639520029313238		-0.1788291181681108
H		2.68455669		0.62663021		-0.18127465		0.07205069128114824		-0.7264199871940566		-0.25494652325769507
12
Lattice="50.0 0.0 0.0 0.0 50.0 0.0 0.0 0.0 50.0" Properties=species:S:1:pos:R:3:forces:R:3 Energy=-11266.611733864636
C		1.55410572		0.16340555		0.02699503		1.223680072784542		1.0695275796306247		-0.9830623072270517
C		1.25777065		-1.13102765		-0.13836806		1.6092356521720534		-0.17280589772778038		0.08667101207541421
N		0.00443977		-1.5983851		-0.08400105		0.2381920840278508		0.8603134732963383		-0.39682678125475684
C		-1.05020309		-0.68753916		0.05987401		1.0838765976234328		0.6102239695247914		-0.09844136790280973
N		-0.72136324		0.70669519		-0.13843258		-1.5850109242426238		-2.1936557736518023		0.19681167051532095
C		0.59234195		1.23172526		-0.06683578		-2.0090219788087507		-4.212638874442894		0.6178765494357433
O		-2.12640913		-1.11868761		0.3472118		-2.4744667201441		0.011614804088500423		0.3642738389359146
O		0.79943803		2.37926071		-0.04437661		1.0724131800867693		5.257732078395503		-0.1275399817548695
H		2.05105854		-1.86315407		-0.30446137		0.22838543392109198		-0.31342760074650916		0.14079869775766327
H		-0.0299501		-2.55609807		0.22252647		-1.148190993875969		-0.6639831132854996		0.039026002961438634
H		-1.5903576		1.28436149		-0.09144583		0.8949917408780812		-0.0769356329472037		-0.012728040318364884
H		2.54561576		0.56255398		-0.13443224		0.8659157527334969		-0.17596506355613056		0.17314070677635754
12
Lattice="50.0 0.0 0.0 0.0 50.0 0.0 0.0 0.0 50.0" Properties=species:S:1:pos:R:3:forces:R:3 Energy=-11265.981173136292
C		1.48378332		0.35964508		-0.01006392		6.991052355414395		-5.898915009147478		0.8169953222047065
C		1.41982542		-1.09432948		0.02789997		-0.3255002668790168		2.6961568986907722		-0.7885744511356673
N		0.14287427		-1.58155325		-0.0715019		1.1491246642637767		-0.1666622468172045		-0.8109819233783029
C		-0.97226113		-0.71779792		-0.01100962		0.870492573401384		-1.3970615890793279		0.8628735206751459
N		-0.76310056		0.60875317		-0.19307204		-2.085799643180124		-0.3677609232564744		0.3651786615466908
C		0.48923301		1.22276687		-0.13933158		-4.249569891158276		0.6376922983091057		0.039771314334511546
O		-1.98599412		-1.23618615		0.37275093		-2.645689743945709		-0.39087580881216116		0.11150622273018716
O		0.5188635		2.41066651		-0.06498986		0.5956295140279351		3.9770654075229763		-0.0016939455810520156
H		2.28583187		-1.83673471		0.02207162		-0.8645004118867702		1.0220244954089963		0.26985228792059135
H		-0.11568553		-2.58027597		-0.12477106		0.24084808497518		0.4261584398938159		0.2477158099470391
H		-1.53588413		1.11522071		0.28499642		0.29878244309608243		0.2095054123180352		-0.8317454837066452
H		2.42996969		0.91478015		0.18615205		0.025130321871142842		-0.7473273750310565		-0.28089728413514253
12
Lattice="50.0 0.0 0.0 0.0 50.0 0.0 0.0 0.0 50.0" Properties=species:S:1:pos:R:3:forces:R:3 Energy=-11266.428814994179
C		1.64528676		0.34148465		0.06905526		0.7681830836952996		-1.1102123040603409		-0.993848753311631
C		1.48601062		-1.01275651		-0.0620817		-0.18197316591010226		-1.2701403690018551		0.4929812557744653
N		0.23252093		-1.60851123		-0.02791787		-2.511295355533153		-0.9452829807475213		-0.28988601491665655
C		-1.0442232		-0.77639707		0.1158429		1.411101406210656		0.024201022358642934		-1.1083321591911768
N		-0.80056964		0.54346404		-0.13155154		1.0163095502330215		1.2032726616606915		0.8997988295415953
C		0.49065753		1.19944228		-0.05663305		-0.9547564158896388		-3.030331810393891		-0.04787928803047344
O		-2.19663806		-1.0929392		0.28375662		-0.23872162842690597		-2.197514639483837		0.40856206723556515
O		0.54559353		2.36845104		-0.16233501		0.10943175388704464		4.633383599602537		-0.2331681999490699
H		2.32099852		-1.78650921		-0.07282164		-0.5865803109009862		0.9807816873355686		-0.22365558119536966
H		0.07529715		-2.64931449		-0.32373529		0.42930428740799287		2.333584204424652		0.9351216726760816
H		-1.6450012		1.15378565		0.04594376		1.0590827817289277		-0.5692723645909876		-0.4068659105058281
H		2.6345655		0.79379917		-0.15126421		-0.32008603792421847		-0.05246865568159698		0.5671721332945603
12
Lattice="50.0 0.0 0.0 0.0 50.0 0.0 0.0 0.0 50.0" Properties=species:S:1:pos:R:3:forces:R:3 Energy=-11266.113287247372
C		1.51530913		0.25848852		-0.47536514		2.3095914928409726		0.02432124714063855		-1.4999677289759579
C		1.31711874		-1.02009977		-0.2230209		0.7499146761029596		-1.6111541578998014		0.15346950532052725
N		0.08308289		-1.5343246		0.11958054		-0.20982093809319566		1.2293526976031248		-0.04109147294365333
C		-1.07965134		-0.73669871		0.17535831		-3.3532206078316564		0.13351959628624688		-1.0910691557637546
N		-0.74539648		0.64666344		0.0742306		1.0721171946953378		-2.174508871544657		0.21459208273506108
C		0.56666268		1.15416445		-0.05565878		-1.4059185765368587		2.2643356555923004		-0.17196036475500281
O		-2.3060796		-1.14135088		0.16822289		4.664490502103374		1.0257531605789214		0.6025607452469134
O		0.93828657		2.30301778		0.11480518		-1.1864044768287196		1.6491721855932		0.6636727297165836
H		2.29016841		-1.52071991		-0.23482404		-0.4852309225228059		-1.6221165702820666		0.025608907006315296
H		-0.00152184		-2.4544273		0.46801782		-0.229937248921547		-1.654825527138366		0.294033152830756
H		-1.47869595		1.25462067		0.32095926		-1.4590928457593213		1.3398016313073873		0.3483586591872297
H		2.4675292		0.7173468		-0.84625791		-0.4664882492485389		-0.6036509958148651		0.5017929918170447
12
Lattice="50.0 0.0 0.0 0.0 50.0 0.0 0.0 0.0 50.0" Properties=species:S:1:pos:R:3:forces:R:3 Energy=-11266.667712547343
C		1.6480516		0.2910946		0.17378984		-1.6608525013892546		-0.31162350910770065		0.15273370702900657
C		1.30439102		-1.02575634		0.05104948		0.7395630549784122		-0.5763120963617241		-0.03862871610699119
N		0.07071333		-1.61059215		-0.07319133		1.2859866946089265		0.004679613370713911		-0.23653449384494724
C		-1.0145605		-0.72151974		0.02962642		-2.8488151181321104		-3.060211525374485		1.187797346234158
N		-0.71158527		0.56887226		-0.17259098		1.3255000758782158		1.759958190916787		0.1853528295422152
C		0.56833137		1.24312348		-0.01520297		-0.4723033131800934		-1.236210858071369		-1.4564798336561957
O		-2.12245479		-1.18489433		0.34287642		0.5150010056662682		0.7773763714412185		-0.7577782407361221
O		0.59000158		2.4151694		-0.30334373		0.41719896826583286		1.474431841298314		0.5072086091675291
H		2.13092079		-1.70157656		0.02217188		0.8576239451642953		-1.0603033872251766		0.07880909294825003
H		-0.014411		-2.68173466		-0.12515135		-0.3017299042933479		2.194297109614612		0.2810078415693985
H		-1.41955307		1.29442609		-0.28234728		-0.6632115766605798		-0.33178501992894077		0.10951315501189453
H		2.67065516		0.57546881		0.32030907		0.8060386176713727		0.3657033208498138		-0.0130014000023207
12
Lattice="50.0 0.0 0.0 0.0 50.0 0.0 0.0 0.0 50.0" Properties=species:S:1:pos:R:3:forces:R:3 Energy=-11266.645608068826
C		1.58517123		0.35185592		-0.24525977		1.546515854075926		-3.8204328282973528		1.2145947713697567
C		1.39567785		-1.05769012		0.01849309		1.0376786053466498		4.776749029607125		-1.8333730066704674
N		0.18012633		-1.53674245		0.1237522		-2.422661974710726		-1.5470645789042734		0.7253260342376089
C		-1.00439398		-0.76030643		0.13583094		2.3103846781541812		1.0341429785991423		-0.13374744744493916
N		-0.76697465		0.58630695		0.21663687		0.8630361686586583		0.9379277746236867		-0.8538771280063275
C		0.49444924		1.21085457		-0.08712217		-1.1703964288352597		1.7209764109290506		0.5500589223350395
O		-2.06125825		-1.27247848		0.03980565		-3.5551198229390644		-1.729620768158373		-0.1383600578682877
O		0.51815287		2.440663		-0.16866129		-0.04041691832850427		-0.12045361017349566		-0.21429383477288205
H		2.1211721		-1.79200371		-0.16807706		1.8347262296657612		-1.148765378313476		0.047918317375868935
H		-0.01826043		-2.55137689		0.0571373		0.1337623598430481		0.5049064434318816		0.16568512478663106
H		-1.48077444		1.2497364		-0.11731871		-0.48225847020319235		-0.42835369916164084		0.6059499733826409
H		2.5845755		0.80048576		-0.33669063		-0.0552503321495409		-0.18001177418227557		-0.13588166872464238
12
Lattice="50.0 0.0 0.0 0.0 50.0 0.0 0.0 0.0 50.0" Properties=species:S:1:pos:R:3:forces:R:3 Energy=-11266.368994115595
C		1.60553503		0.29367771		-0.12971529		-1.6675988188716822		0.6247771331055046		-0.2553590824646886
C		1.41013878		-1.05157428		-0.1059424		-0.14636585592617204		0.5994950647280877		0.5316483327400401
N		0.18340829		-1.62773632		0.14143269		0.228870909612632		2.633448464870445		-0.5098239352634646
C		-0.94004122		-0.76537346		0.05112291		0.8322017516667166		0.7727126989098625		2.235971143103701
N		-0.77585336		0.64502866		0.28044304		0.40321977774612694		-2.4360068226681144		-0.4815701858973705
C		0.41517181		1.23659567		0.00592881		2.268559258113255		-1.4894588591844549		-0.5417042770055306
O		-2.04077146		-1.18813594		0.02070871		-3.4147494195395023		-1.7240957246590063		-0.637811340383665
O		0.49110624		2.40703925		-0.24264151		0.29743801327346675		2.4985131677830346		-0.19722536100768823
H		2.14483508		-1.8007937		-0.25718635		1.5462718563896263		-0.7412030073938974		-0.32633165878462206
H		0.16011382		-2.54092337		0.57161676		-0.6932885980947742		-0.5103526054874581		-0.10705687735510043
H		-1.58033016		1.22764391		0.05471262		-0.49096468817363537		-0.042630638116746916		0.12487657603054829
H		2.42686436		0.83832841		-0.58248194		0.8364058138039423		-0.18519887188725587		0.16438666628784096
12
Lattice="50.0 0.0 0.0 0.0 50.0 0.0 0.0 0.0 50.0" Properties=species:S:1:pos:R:3:forces:R:3 Energy=-11266.953954744975
C		1.63621227		0.26644203		0.10481682		0.5218716102736242		-2.772199176147125		-0.39979589114031167
C		1.37100685		-1.11549707		0.10695327		-1.523766116585659		2.1587426100888125		-0.08340679097348959
N		0.03570475		-1.56877087		0.00492001		2.31121992671447		1.2560689787241857		0.36658968294017236
C		-1.07749204		-0.72343988		0.07034722		1.6096082050144653		1.5479650820618043		-0.11864046825169694
N		-0.7056135		0.63827663		0.10140224		-0.20378794746100073		0.7709278391224084		-0.7068353804913831
C		0.59984347		1.19478024		-0.10495191		-2.046812772408206		1.5997774893824823		0.34298495081763775
O		-2.1820373		-1.17345085		0.09565501		-2.2303434611676947		-0.4989889981739999		0.0733320262331443
O		0.666957		2.41209773		-0.34174876		0.3400483396755481		-0.9980557465064162		0.10505254820513242
H		2.16660048		-1.84255444		0.18276788		0.3233756615249908		-0.6272595845920831		0.002606532923257411
H		-0.20284953		-2.53472831		0.1221511		-0.06779448717260368		-0.9688669383568281		0.00917230754444148
H		-1.36546106		1.44849554		-0.04468247		-0.035792326564606146		-1.3810455706661888		0.2692105920033444
H		2.61873669		0.69891346		0.05558354		1.0021733681566722		-0.08706598493705164		0.13972989018975102
12
Lattice="50.0 0.0 0.0 0.0 50.0 0.0 0.0 0.0 50.0" Properties=species:S:1:pos:R:3:forces:R:3 Energy=-11266.684315162554
C		1.71393771		0.18092986		-0.1210023		-1.3178888393054693		-0.3371871646990647		0.31529360454850097
C		1.3433149		-1.12684603		-0.02768518		1.23335040300376		0.2532828138493605		-0.2146435562195682
N		0.06701929		-1.48331483		-0.00518651		-3.7048500187227407		-0.01217227066746299		0.3614086530385605
C		-1.13286935		-0.67899386		0.10127939		0.15150112019220807		-0.8601625495430633		-0.07646270423890016
N		-0.65979212		0.58112522		0.1104446		-2.588203786209324		3.1182417342197843		0.17918670719035104
C		0.64634776		1.14551564		-0.055211		-0.6226681600584618		1.758004718186577		-0.6734589138424893
O		-2.32181311		-1.06767155		0.17454147		2.8138345402452556		0.40651078974258525		-0.17928877998430365
O		0.72414612		2.37758725		-0.1881228		0.1804501986866788		-1.1289790942818945		0.3346836815889463
H		1.99427013		-1.99906951		0.0097921		0.6838198423603393		-0.06914390493527646		-0.15025506077504908
H		-0.24430129		-2.39879079		0.11823001		0.04472320752586994		-2.7113393140496207		0.16640395379754502
H		-1.46497654		1.2896643		0.14193488		1.5327876546430126		-0.7031719699187003		-0.0395792015092183
H		2.68058255		0.56533887		-0.29616749		1.5931437347947464		0.286116212096776		-0.023288435016437535
12
Lattice="50.0 0.0 0.0 0.0 50.0 0.0 0.0 0.0 50.0" Properties=species:S:1:pos:R:3:forces:R:3 Energy=-11266.313675089044
C		1.60110837		0.14563953		-0.31892006		0.8219282920770852		1.4122683270737129		-0.16017941598274368
C		1.29206427		-1.15514314		-0.11340754		-0.6041216105303586		2.4486093417320522		0.3440850229995164
N		0.06064701		-1.49199081		0.32610023		-2.982656205152761		-3.392476056035723		-1.3516476289886388
C		-1.09927626		-0.75550756		0.04655798		0.3888241713647441		2.985882425350539		0.9640370182975888
N		-0.65633378		0.61122145		-0.14153015		-1.021408510522972		-0.6495429239759772		0.025125591041397933
C		0.65914236		1.25460134		-0.15986789		-2.254873790414233		-3.5852991742775235		0.8496569193414943
O		-2.2826893		-1.09447178		0.16167154		1.945230030710652		0.018357779136868792		-0.411024207007478
O		0.77994512		2.41791749		0.10289097		0.5993517000179919		1.371493202658219		-0.3305237910033606
H		1.99194968		-1.92396323		-0.1257806		1.7256543787937668		-1.6947835035595515		-0.049009339274757306
H		-0.25139164		-2.46949291		0.13332181		0.7473188903907532		0.072017472628809		0.71658793458845
H		-1.43858371		1.18801929		0.10046483		-0.76874240146851		1.1829390926185115		-0.1425241136409314
H		2.59978057		0.51973183		-0.37239792		1.4034949518897168		-0.16946582908374988		-0.4545839903705375
12
Lattice="50.0 0.0 0.0 0.0 50.0 0.0 0.0 0.0 50.0" Properties=species:S:1:pos:R:3:forces:R:3 Energy=-11266.435760333574
C		1.62297056		0.14253841		-0.26200017		-0.06405265795469305		-0.4386079783219805		-0.17620397045824843
C		1.27075975		-1.18379095		-0.13081031		-0.03290184101252931		1.0467157242889242		-0.2092596662816122
N		-0.00928025		-1.49994517		0.19477728		1.392767435488699		-1.2535771684222423		0.3054721448877581
C		-1.00507209		-0.63957668		0.16320472		-4.868185118521037		1.285609873735332		-0.4468618364090978
N		-0.69959253		0.70246463		0.27672801		-0.13838607743188466		-1.5607235642411361		-0.31014383926085554
C		0.60536727		1.1681758		-0.07202178		-0.694003930405442		2.8812638793524394		0.6832283343760384
O		-2.15160872		-1.15952639		-0.01953046		1.3406672703065807		1.7359461960596907		0.7527360504031106
O		0.75343094		2.40455498		-0.13535826		0.4128887195696589		-1.5000437822063135		-0.24178926298410466
H		1.86451697		-2.03927187		-0.36197289		1.142264498335097		-0.7575857679563917		-0.08428446273529505
H		-0.60096626		-2.33098912		0.14323373		1.0991485387929973		-1.5933516341932104		-0.26930330598193214
H		-1.54735922		1.284772		0.3059024		0.5683876480066271		0.46052575826395553		-0.17324745897799268
H		2.61021497		0.51385089		-0.58845198		-0.15859448517407437		-0.3061715877811304		0.16965727342223136
12
Lattice="50.0 0.0 0.0 0.0 50.0 0.0 0.0 0.0 50.0" Properties=species:S:1:pos:R:3:forces:R:3 Energy=-11266.798968870089
C		1.63716842		0.34218841		-0.07139686		-0.5354296026798459		-0.4402952390349147		-0.7061838629602091
C		1.33174935		-1.01092199		-0.10176074		4.029643335087268		1.5586446216785612		0.9215783355576567
N		0.16958448		-1.58647802		0.04534883		-2.417888310387801		0.5720553266104926		0.0006699780515914854
C		-0.98846		-0.81574723		0.1134652		-3.8962106935086154		-0.2602541028549832		0.05425007019086736
N		-0.73693176		0.57068327		0.10353244		0.5241297073017565		0.7940869476517974		-0.736445952397142
C		0.53116726		1.31031316		-0.1032586		-0.1791462894492695		-3.268368136994597		0.9000199958321697
O		-2.1445989		-1.33485132		0.16981799		2.8958144718300303		1.3027222619418537		-0.04116521218119897
O		0.53710224		2.50273434		-0.18273316		-0.07652513062270797		1.7316752338192245		-0.2799541006657825
H		2.15137676		-1.72907701		0.00728977		0.4490819839551461		-0.041359433311052456		-0.3735732103966568
H		0.1269903		-2.5670703		0.23867321		-0.4888945387837383		-0.9319734597470324		-0.027453879184767282
H		-1.48846556		1.27689861		-0.03535849		-0.22241759504201447		-1.0345710158469317		0.33133168302642874
H		2.6826927		0.6725182		-0.13467263		-0.08215738912227168		0.017636996087581982		-0.04307384487295745
12
Lattice="50.0 0.0 0.0 0.0 50.0 0.0 0.0 0.0 50.0" Properties=species:S:1:pos:R:3:forces:R:3 Energy=-11266.782180657787
C		1.62398295		0.15873227		-0.04106295		-1.2892143032023906		-0.6453730060882148		-0.6426313359848528
C		1.32505196		-1.19120625		-0.07283942		2.050483844868193		1.8126912074214119		-0.43798479434721366
N		0.05166379		-1.54634265		0.02348384		-1.857993067415972		-0.9126550136395724		-0.11985649718438826
C		-1.06762113		-0.70687955		0.05744735		0.27170322505828687		1.0901664414575387		0.4722851097699879
N		-0.74412342		0.63736029		-0.04073367		0.03929977402189401		1.9250528361603663		-1.6205561677971834
C		0.58098486		1.21389409		-0.13711754		-0.1963125165551706		-1.4581561928918916		1.8862980331562607
O		-2.2093294		-1.05088533		0.24621975		-0.9627970781058606		-1.184662348775157		-0.15830703584500871
O		0.77844314		2.41417126		-0.05572265		-0.15787797015597047		0.16834966179632607		-0.7365546072150874
H		2.0263133		-2.0514138		-0.26986161		-0.14048738859162327		0.8596589218634804		0.5734669650687235
H		-0.09138607		-2.52808784		0.13582706		-0.8694521508119413		-1.0088647154543462		0.035191716875252514
H		-1.54083286		1.29546345		-0.33325658		1.1468185904513835		-1.1383767333039683		0.9328167301490624
H		2.60029095		0.53732557		-0.0121069		1.9658290918612338		0.4921689928760894		-0.18416811664555266
12
Lattice="50.0 0.0 0.0 0.0 50.0 0.0 0.0 0.0 50.0" Properties=species:S:1:pos:R:3:forces:R:3 Energy=-11266.775384763909
C		1.6078328		0.25894199		-0.12732254		-0.6691184289735981		2.2207932528863474		0.25440618022552663
C		1.38533836		-1.0631586		-0.02611851		0.7552467326019714		0.7253285539186686		-0.10944260394222045
N		0.18327351		-1.58274435		0.12431679		-3.258109641225137		1.383286544147527		-0.4534600069296221
C		-1.00339755		-0.72216797		0.05751875		-1.6558257890970396		-2.9367231907637548		1.1231474210241703
N		-0.77973165		0.61777867		-0.20881726		1.096973025597151		-0.8625880253844532		0.06172035889045301
C		0.47048046		1.25726996		-0.13052318		2.1276974140629097		0.12092412204486433		0.3858411775223294
O		-2.09192501		-1.29588971		0.300864		1.604753910897627		1.7418354620273528		-0.7872563494090234
O		0.55927559		2.49102876		-0.0528514		-0.2353983747972948		-1.320432277358107		-0.30792909103136396
H		2.21800029		-1.70168792		-0.10778077		1.3833189914689297		-1.4269743170240117		0.2344410502607626
H		-0.0523908		-2.55423949		0.30324566		0.05964465591781183		-0.24267876182027237		-0.0599044915993447
H		-1.50172978		1.31036342		-0.27549705		-1.3558032001209792		0.1639970927427602		0.11582804139041111
H		2.63731287		0.5912457		0.0139251		0.14662065224558532		0.433231544583079		-0.4573917378241409
12
Lattice="50.0 0.0 0.0 0.0 50.0 0.0 0.0 0.0 50.0" Properties=species:S:1:pos:R:3:forces:R:3 Energy=-11266.7465083962
C		1.56300865		0.28290143		0.04525226		-0.09629578234730626		-0.13845961098118056		0.6069364028065168
C		1.36665555		-1.04511614		0.09063499		-0.4659243549117708		-2.8814119748922797		-0.15972803311860448
N		0.06717753		-1.63146448		0.0125281		1.9310720971018887		5.449239048949032		0.24900629802615032
C		-1.04546785		-0.75194236		0.0966002		0.031828611147246805		-1.3454874201739557		-0.7316853492780777
N		-0.69665469		0.61183557		-0.15315383		-2.8881627146720783		-0.2168751194634791		0.042928166170051726
C		0.5122679		1.2607514		-0.09423024		1.4140995181394298		0.11709148146467642		-0.515956787540927
O		-2.16798225		-1.22959406		0.24595015		0.48737090307350295		1.231508567571117		-0.1327175663782975
O		0.72457283		2.46720936		-0.23630886		-0.9191735828074322		-0.4043854644796849		0.1884113623943611
H		2.21921601		-1.80388125		0.17891854		-0.9366033479833621		0.9141386429852256		-0.016135060487698333
H		-0.09574817		-2.58094981		0.00413112		-0.5139856256212357		-2.9255276307503664		0.15399935825195704
H		-1.50504685		1.22494575		-0.3583089		0.07053646580834033		-0.29832144430626606		0.33227373521041487
H		2.4852017		0.70375679		0.32701557		1.8852378644948389		0.4984909754992233		-0.017332526055847144
12
Lattice="50.0 0.0 0.0 0.0 50.0 0.0 0.0 0.0 50.0" Properties=species:S:1:pos:R:3:forces:R:3 Energy=-11266.259408847085
C		1.69777823		0.201661		-0.074351		1.2494078675992293		-1.0008826743893111		-1.0824026870475814
C		1.36973263		-1.12106996		-0.06748602		-0.321636413106925		0.17913667352359236		0.871880506288828
N		0.07570643		-1.47225649		0.0280955		-2.335850014762151		1.0550665643858124		0.21643576936195197
C		-1.1706536		-0.64935325		0.07928985		2.4021227174187674		-0.19710930141275063		0.6770348040648911
N		-0.71682227		0.69181715		0.20843628		3.229263406855556		-6.332001234982088		0.32715029801874107
C		0.65344893		1.14731007		-0.05516182		-2.3254473315295963		0.9990050492012071		0.25536340191793394
O		-2.27709392		-1.18145167		0.11103075		1.2565174305307658		1.1323880170675384		-0.26521823449720344
O		0.72416235		2.34460285		-0.19978022		0.8241598553209963		1.641477388168981		-0.3547492388416648
H		2.06496663		-1.96224718		0.08044616		0.2687534498682114		0.07409728936644576		-0.6554474622961854
H		-0.1610851		-2.41617514		-0.04841203		-0.4846668739198505		-2.358361719525362		0.04236134077572423
H		-1.38653319		1.30517788		0.03221996		-4.004139226244216		4.432800532183399		-0.7925473196801419
H		2.65330099		0.47770341		-0.54170759		0.24151508054714968		0.3743834678345974		0.7601388219347066
12
Lattice="50.0 0.0 0.0 0.0 50.0 0.0 0.0 0.0 50.0" Properties=species:S:1:pos:R:3:forces:R:3 Energy=-11265.940903727398
C		1.62754054		0.29772618		-0.18729858		0.846628416973816		1.2675916344767855		-1.2909528831336445
C		1.34690927		-1.00792013		-0.16476923		-1.1655258853466886		-0.3028603669141314		2.0735073019968526
N		0.1516635		-1.41918357		0.39742245		-0.014260726311590444		-0.7989784713418457		0.26115224059764164
C		-1.0637084		-0.75659577		0.14549559		-1.3857843194087143		-0.9924188085991699		-1.210777043187678
N		-0.81289262		0.5390358		-0.37441976		1.7252057727209993		1.3332232068588417		1.1611458054897148
C		0.54538247		1.26810787		-0.10951916		-1.3314088308075445		-1.5921338054883334		0.19024075368789242
O		-2.13221934		-1.40111017		0.16121848		1.2299115011557107		1.8164567936321723		0.4863246183689414
O		0.66105356		2.45688391		0.0762587		-0.6401005477595764		0.263479140345325		-0.39190363299630504
H		1.94505487		-1.86478964		-0.33509028		1.7401335974486845		-0.7765789180968266		-0.2442826159479213
H		0.23697768		-2.22594393		1.06755952		-0.8605665212656287		0.5977559191541466		-1.2059828614618373
H		-1.52941903		1.24255881		-0.62670591		-0.2381823652580488		-0.83082343470495		0.3587961551560596
H		2.62192348		0.68810942		-0.43031247		0.09394990785858083		0.015287162100048315		-0.18726788999177924
12
Lattice="50.0 0.0 0.0 0.0 50.0 0.0 0.0 0.0 50.0" Properties=species:S:1:pos:R:3:forces:R:3 Energy=-11266.52855075869
C		1.61696738		0.20512297		-0.0120276		1.3969287144699711		3.5088362643503737		0.41999617419663504
C		1.35732979		-1.05687066		0.00149907		-3.9866245118211263		-3.0243167146394265		0.1488675392641048
N		0.01770918		-1.60243399		-0.00094813		3.0316665728687666		1.7084316388412386		0.43068980345850183
C		-1.03511567		-0.71277011		0.08466971		-2.160535028919446		0.5677751083987863		-0.24104503147434306
N		-0.76416588		0.70303752		0.07952221		0.6387755040545023		-2.1105395173311248		0.5481746637008799
C		0.55771338		1.18399743		0.00199267		-0.6891090642813346		2.7112019142987687		-1.4157160220944398
O		-2.1703191		-1.16833162		0.0816116		-0.32267009940618757		0.5177732718967848		0.4069061739807222
O		0.75516313		2.3848473		-0.24737159		-0.07061987239362556		-0.6741480209013103		0.7948649634565851
H		2.10500498		-1.74722685		-0.08872351		2.3312575103652184		-2.4844966448459935		-0.06731204538274786
H		-0.12818116		-2.48619748		0.49762002		-0.1695549435179665		-0.059982858822510365		-0.443608002563787
H		-1.55342023		1.3641321		0.2369489		0.5347880096067239		-0.5365804284373573		-0.39429460463379445
H		2.66059184		0.5920019		-0.01569339		-0.534302791025496		-0.12395401280822863		-0.1875236119083165
12
Lattice="50.0 0.0 0.0 0.0 50.0 0.0 0.0 0.0 50.0" Properties=species:S:1:pos:R:3:forces:R:3 Energy=-11266.847966105419
C		1.6810356		0.22345606		-0.02818747		-1.968271279872918		0.1071682061202931		-0.44144714465573753
C		1.30962521		-1.09958484		-0.03437558		0.6570805755773654		1.9137898618231122		0.2284343363024769
N		0.04995339		-1.5841479		0.02836773		-0.6640200343263348		-0.3460040429478886		0.6444533225013921
C		-1.0960994		-0.72883027		0.13728302		1.3162328946285637		-0.9702197499756225		-1.036603267176807
N		-0.68235369		0.62144367		0.1827256		-1.937305788043805		0.27173330696481707		-0.21689507122370769
C		0.55331515		1.24825477		-0.01611015		3.209624858409378		-0.9323433386421967		-0.6411138195000485
O		-2.23256277		-1.1594033		0.03965936		0.19562865454671907		0.6275248710122351		0.45363216799468686
O		0.73930723		2.44042154		-0.23999177		-1.028739856809832		-0.34486951798417204		0.3432516256334757
H		2.12791769		-1.77169411		-0.04246306		0.8603248889942011		-1.5516299324522351		-0.3071568859196325
H		-0.02259965		-2.61709546		0.01399539		-0.6649344214407258		0.6772608040293355		0.061849788221626234
H		-1.47623342		1.24095648		-0.03389133		-0.005901812950898608		0.07577056327839501		0.37749661091705955
H		2.69375129		0.44262314		-0.39142608		0.030281269866224515		0.47181896877392715		0.5340982340610911
12
Lattice="50.0 0.0 0.0 0.0 50.0 0.0 0.0 0.0 50.0" Properties=species:S:1:pos:R:3:forces:R:3 Energy=-11266.828994808411
C		1.6380326		0.30580064		0.00014947		-0.8106056167253328		0.10940820258244496		-0.18395409802165794
C		1.43328915		-1.07718352		-0.07000097		0.7236527603256595		2.3926747876196224		0.9454013029132066
N		0.14690278		-1.57596395		-0.07012288		0.943931300414101		-1.043964078305448		0.02680189885503143
C		-1.01852301		-0.81127963		0.13815258		3.990926944363809		1.949543056198198		-0.884920267149732
N		-0.74650961		0.61028317		0.15614705		-0.9345850834544717		-1.6780152317949097		-0.4170027930976065
C		0.46439137		1.288427		-0.09941551		0.7268184053338778		-1.3949425373080457		0.7222466240281102
O		-2.09838606		-1.27219365		0.1862432		-3.445482175113991		-1.3361289647634647		0.39249220992304673
O		0.52332262		2.49707896		-0.25021779		0.10718131874621649		-0.12673651202917166		-0.12818712841073554
H		2.28582319		-1.79946456		0.06528725		-0.6923356444335498		0.3762700404615671		-0.32586243246481456
H		0.12949613		-2.61305033		-0.11196712		-0.8424820503906533		0.7105209539729791		0.08428621108541817
H		-1.66444804		1.05339182		0.03003221		0.2823140133775553		0.6826772955548812		0.18504799955604326
H		2.58887515		0.84191156		0.20557358		-0.049334172443220234		-0.641307115032778		-0.4163495786383719
12
Lattice="50.0 0.0 0.0 0.0 50.0 0.0 0.0 0.0 50.0" Properties=species:S:1:pos:R:3:forces:R:3 Energy=-11266.652197770432
C		1.57743562		0.32619431		0.05322123		1.6636504272289312		-0.3127290320281984		-0.38425989768009355
C		1.45140272		-1.01557944		-0.01028588		-4.247217023269059		-1.10305111337811		0.028089764408957964
N		0.13637074		-1.58048697		-0.14092851		-0.31660491856290224		1.249822535110783		0.9922847512823766
C		-1.03542267		-0.80396706		0.14401063		2.8357579766140995		1.4818929768707843		-2.1937383060620257
N		-0.75027337		0.61166643		-0.07798454		-0.45149403863823784		-1.3033364470556927		0.3991343977290235
C		0.49364895		1.28059733		-0.09655862		-0.2515390402897997		-0.7475092548659232		0.2010533221801937
O		-2.09329513		-1.32792603		0.31929463		-1.702552708708128		-0.12274060640072194		0.5309171624341396
O		0.57124861		2.49543231		-0.19007571		0.020545427939451997		0.14577897592749112		-0.13030895697338957
H		2.09327375		-1.83419506		0.20063773		1.85730941109577		-0.4767548697038652		-0.1267498817654073
H		-0.1379375		-2.57763788		-0.08857291		0.8450772190381104		0.27718383989570133		0.0950743026759958
H		-1.51680081		1.25452371		-0.24160321		-0.7369458776882287		0.062210154035238406		0.2719104559699389
H		2.61729142		0.62359667		0.04152568		0.4840131452399915		0.8492328930145757		0.3165928858002902
12
Lattice="50.0 0.0 0.0 0.0 50.0 0.0 0.0 0.0 50.0" Properties=species:S:1:pos:R:3:forces:R:3 Energy=-11266.451365040763
C		1.66489263		0.26089899		-0.21606749		1.7953896888692193		3.8788731280906483		-0.5485656256416467
C		1.43741438		-1.00416779		0.03070618		-2.089311152980345		-3.417860762849779		-0.8096572910497284
N		0.17227983		-1.51659225		0.18001276		-2.018073650194697		-0.013206008388788007		-0.0821137832133186
C		-1.07714762		-0.75877481		0.09459072		2.7042132960581022		-1.0425014805833346		0.3217222365291451
N		-0.71068324		0.59069801		0.07759727		-1.872567982529099		0.48818208610856756		0.7640730210882227