12
Lattice="50.0 0.0 0.0 0.0 50.0 0.0 0.0 0.0 50.0" Properties=species:S:1:pos:R:3:forces:R:3 Energy=-11266.696466219306
C		1.72414671		0.20088106		-0.10280155		-2.774974270591076		-2.078690800157462		0.42952704778250317
C		1.23251376		-1.13548036		-0.12988571		2.2338546624355407		0.8460805663205305		0.6660566051094556
N		-0.04711217		-1.53622667		0.12645201		1.436568491168749		-1.0454497645335992		-0.3424897049342332
C		-1.09336744		-0.68133211		0.14145795		0.23000502319984906		0.37851605330502497		-0.6736468614807247
N		-0.63327398		0.62189478		-0.01500613		-1.7338124375785495		0.6514707370970276		0.9969268779695684
C		0.62548083		1.21302026		0.01729479		2.200624902930802		-1.2591847443318327		-1.6923990111019305
O		-2.2109317		-1.13853255		0.13482241		-1.8197993819572624		0.6776330997614348		0.32306625497526126
O		0.75185427		2.41094369		-0.15445411		-0.07742820488336111		0.8146466709246091		0.6507729397096536
H		1.83504729		-2.05849365		-0.21540485		0.6539572509265392		0.5154972285688592		-0.22834234223276337
H		-0.31687911		-2.52946911		0.02200986		0.21116814470718334		0.47833450404010275		0.1482478005675217
H		-1.31301515		1.36945223		0.0451678		-0.8799299102556652		0.18648318931887373		-0.1545428894519971
H		2.75465411		0.52832963		-0.20973929		0.3197656270531258		-0.16533674031356851		-0.12317661406819023
12
Lattice="50.0 0.0 0.0 0.0 50.0 0.0 0.0 0.0 50.0" Properties=species:S:1:pos:R:3:forces:R:3 Energy=-11266.548515364779
C		1.58601161		0.3044159		0.13403757		0.9655711441085628		-0.06096229484589382		0.2408233509631441
C		1.39377863		-1.0313082		0.09468677		-1.5803411324858367		-0.027349389553879732		-0.8223086610729884
N		0.14103566		-1.54978858		-0.25987638		-0.06668305071492478		0.004588853430499085		0.5772394418358511
C		-0.99577266		-0.74052908		-0.06135325		-1.6576806857335433		-1.5095735245068076		2.590362175858376
N		-0.77209704		0.55919428		-0.19445605		1.5068203872835204		1.326727571930832		-1.0430486627498081
C		0.52581603		1.2115338		-0.1284491		-2.490481144473303		0.12769697331151306		-0.03528828750852358
O		-2.00886928		-1.22474196		0.49936628		0.9210387638564249		0.26808141493412213		-1.6591157212301861
O		0.49148145		2.42141441		-0.18256932		0.8799108840925607		1.0333165232115318		-0.013618927550218634
H		2.19067069		-1.72836255		0.22925074		0.7863485443186252		-0.9053116345901		0.3361160945604048
H		-0.22688438		-2.38634497		0.20262687		0.8461473635796463		-0.9595831477810068		-0.179373009322588
H		-1.53493787		1.19954882		-0.07610098		-0.8145232579747419		0.5280373212489887		0.11925984699384287
H		2.52015635		0.7350301		0.46345477		0.7038722355650717		0.17433128178813878		-0.11104764077730567
12
Lattice="50.0 0.0 0.0 0.0 50.0 0.0 0.0 0.0 50.0" Properties=species:S:1:pos:R:3:forces:R:3 Energy=-11266.8832358809
C		1.61850817		0.26552467		0.03994744		-0.42547874307242234		-2.3493793136575283		-0.21387371652270917
C		1.40014501		-1.1122929		0.11155211		-3.0818864389155345		1.7958158749227604		-0.3092559345086236
N		0.05774463		-1.57310598		0.00430657		0.731851339695649		3.0068782077128815		0.09984452172073718
C		-1.07267689		-0.70492712		0.07515227		0.17261301357155046		-1.069599056297423		-0.4343583048153663
N		-0.74058907		0.67859735		-0.02673627		-1.1454323544920004		-2.0476406676135652		0.03612950102805578
C		0.52929343		1.23900093		-0.16040625		1.2548829288538996		-0.8956464465771264		1.0555431954826118
O		-2.18156809		-1.25711514		0.17186967		0.9797218272065216		1.780077021426198		0.003929314057583865
O		0.74231395		2.42994164		-0.2467411		-0.4195691139680322		1.0343083519519645		-0.37256461806386726
H		2.06748722		-1.92136392		0.27998321		1.3779745422528689		-0.6775116408499405		0.16613357659321099
H		-0.30417994		-2.48167765		0.18805745		0.2816401786712805		-1.5767029701458146		0.1657657545805443
H		-1.53679481		1.28972483		0.08122583		-0.4716254161308855		0.6144133763742203		-0.13472127846351614
H		2.61371041		0.65337779		0.1595931		0.7453081849050419		0.38498726275337336		-0.06257206251072393
12
Lattice="50.0 0.0 0.0 0.0 50.0 0.0 0.0 0.0 50.0" Properties=species:S:1:pos:R:3:forces:R:3 Energy=-11266.616228919595
C		1.60910063		0.18211411		-0.20535854		2.4817510666658857		1.3824140660140285		-0.5819018802377085
C		1.30508412		-1.10613561		-0.28968122		-0.6187766926388372		-1.0133470737935224		1.3801090720649467
N		0.03921555		-1.58021164		-0.07305176		-1.8448364242071311		0.6483348654629649		0.220302657035728
C		-1.07239106		-0.75753644		0.18171259		-2.091986951421716		2.67786740805283		-0.5115515622954179
N		-0.69627068		0.62821288		0.31082591		2.9922446714485673		-1.8015779227079345		-0.8951328430174292
C		0.59888014		1.20978855		-0.04973413		-0.8266537225054372		-2.8411707657511487		0.7014777158052736
O		-2.29882052		-1.01890027		0.20384696		2.796477485865622		-0.7804347500271771		0.2517700796163635
O		0.839649		2.37030144		-0.14430934		-0.33594023110684407		2.868766158451764		-0.056943249289344036
H		2.07115028		-1.84577227		-0.21967514		0.8480963111683614		-0.9957966724590972		-0.44555185936832015
H		-0.15322185		-2.51341097		0.22613673		0.1382492947457819		-1.3269978462910414		-0.21413206096443113
H		-1.42520268		1.27882239		0.35080247		-1.9523516778268626		1.3192639680993643		0.1783764497524105
H		2.71752276		0.48029565		-0.28215792		-1.5862731816094529		-0.13732148647309286		-0.02682246768000929
12
Lattice="50.0 0.0 0.0 0.0 50.0 0.0 0.0 0.0 50.0" Properties=species:S:1:pos:R:3:forces:R:3 Energy=-11266.559026121122
C		1.62023765		0.25228641		-0.0309217		-0.028777534494155304		-3.8510621741042654		-0.1451223161900728
C		1.33566536		-1.14615749		-0.0915665		-0.8019339029587903		0.5971646682801579		0.984735375450751
N		-0.03500809		-1.64178779		0.01213863		3.41303696201597		-0.5542598991485186		-0.8491672784628963
C		-1.05660691		-0.77476653		0.10390161		-1.944226632006169		2.5146619579614056		0.10564287348199715
N		-0.72252331		0.6385551		0.11167752		3.8805219765229366		-2.0391597811207545		-0.21239373814348939
C		0.5621672		1.2577821		-0.04195662		0.99023270245846		0.6263213890627802		-0.546747752890103
O		-2.23028974		-1.09779581		0.16692674		-0.2799554376394061		-0.3337644608006856		-0.02233830956864754
O		0.85478022		2.46476129		-0.22230889		-1.6835623867811274		-1.8055540822644054		0.6006104092625123
H		2.10037283		-1.99823604		-0.01301192		-0.7293136094919425		1.2593379306558552		-0.3701467526877193
H		-0.2983998		-2.64149783		-0.21864588		0.45948019346826824		1.3288554682968547		0.47485713848934497
H		-1.45731314		1.25100007		0.12658995		-3.0697906328549265		1.995609510839247		0.06707437261012865
H		2.6861167		0.5277206		-0.0168923		-0.20571180108324283		0.2618494723423288		-0.08700407277386826
12
Lattice="50.0 0.0 0.0 0.0 50.0 0.0 0.0 0.0 50.0" Properties=species:S:1:pos:R:3:forces:R:3 Energy=-11266.632331859622
C		1.67553189		0.15852044		-0.17840522		-0.25463819657127695		1.6217058108472586		0.6244089511384008
C		1.27679128		-1.13449261		0.00838774		1.6820956752940186		2.245055673187549		-0.040413884426820035
N		-0.00807642		-1.50195183		0.02927155		-0.35153417723143726		-2.401164364440986		-0.5806441994344369
C		-1.1070545		-0.72705242		0.02745143		-0.2256878325252451		2.0647515645802756		0.6563716196024408
N		-0.66704396		0.64328318		-0.11348607		-3.5265128554260383		0.0006590251522907727		0.9415071615463347
C		0.58666588		1.21659048		-0.14499545		2.3170432181760154		-1.218902500384871		-0.018019370543920478
O		-2.2383241		-1.13926004		0.26798802		0.5581502867048318		0.7515070116886209		-0.6305375353846804
O		0.8107951		2.40943632		-0.01671587		-0.4439016225403461		0.23299665594875446		-0.08976919133770503
H		1.98739039		-1.84086743		0.35858824		0.9412561704595425		-1.3706620164408634		0.00016208234082557083
H		-0.22145564		-2.48076446		-0.07066122		-0.12648762924693951		-0.8640883669004011		0.3278792057538942
H		-1.39943669		1.27369739		0.28053474		0.32887705087563285		-0.07886308611381691		-0.727549421373591
H		2.69665641		0.61497859		0.03798146		-0.8986601393908208		-0.9829953557017487		-0.46339546930280484
12
Lattice="50.0 0.0 0.0 0.0 50.0 0.0 0.0 0.0 50.0" Properties=species:S:1:pos:R:3:forces:R:3 Energy=-11266.580180148243
C		1.69652357		0.11664269		-0.14650815		-1.4164900784004193		0.8792557155949533		0.6008660797569871
C		1.28054207		-1.17555178		-0.21275775		3.210409816192595		2.5831889009914706		-0.08637970609166519
N		0.03161071		-1.48214902		-0.13290676		-2.971612494489771		-2.443333952345854		0.6939384186978874
C		-1.01521488		-0.67447179		0.18279245		-2.9642231441164735		1.252540036844796		-0.6583906040402057
N		-0.70312232		0.67124272		0.21975606		1.7101481072856415		-1.5643908314685022		0.5877046542963386
C		0.59462574		1.19704122		0.04096573		0.7867035108156807		-2.2789559763865666		-1.444127174393677
O		-2.17947781		-1.07985056		0.23033229		0.5720046758789846		-0.2055308982675625		0.4786638109279984
O		0.65180404		2.37001747		-0.18724522		1.1566697206421568		2.4058280369723426		0.23129196315665157
H		1.96121985		-1.97927749		-0.35447995		0.9588094514294645		-1.0464202016960549		-0.25578151470767146
H		-0.18572908		-2.45433013		-0.01860232		-0.578707644562771		-0.9202970006056607		-0.1762600719283756
H		-1.41997862		1.35825268		0.36428778		-0.8287233062526476		0.4444618144886182		0.017453984967341435
H		2.76307568		0.25603629		-0.26921535		0.3650113855775583		0.8936543558780203		0.011020159358390364
12
Lattice="50.0 0.0 0.0 0.0 50.0 0.0 0.0 0.0 50.0" Properties=species:S:1:pos:R:3:forces:R:3 Energy=-11266.475101285216
C		1.66888158		0.26072511		0.16909598		-1.2522871945637557		0.7891484241966747		0.13295318226841896
C		1.46569927		-1.06621814		0.03693952		-4.719491642938307		1.5714099429921982		-0.8405643674159045
N		0.17283559		-1.52079177		-0.23360374		-0.7400189115619842		3.0230345055123697		1.6802166102881655
C		-1.05970642		-0.68667981		0.13943604		1.1755374523722892		-2.8543626844948276		-1.5734462052429445
N		-0.77295423		0.62512825		0.12815321		0.3081801335402189		0.5803519678535639		0.5140419842016752
C		0.54879572		1.21207238		-0.00519972		-1.457767287833623		-0.3593210715694946		-0.8992137493151001
O		-2.14816161		-1.22362799		0.22366481		0.11156407255043738		0.1574187197162772		0.20365111335283548
O		0.50381943		2.36961404		-0.38367853		1.3519391920827002		0.6774634583774299		0.4411757390101546
H		2.14462457		-1.81473193		0.00357994		3.0683406849601744		-2.5258704249124677		-0.012756476718896782
H		-0.01639716		-2.47708351		-0.38991244		-0.3563643544009891		-1.6304494640791611		0.013833820349174871
H		-1.60099352		1.26237181		0.07537198		0.8654183471234698		-0.30580232595071527		0.13387101466099366
H		2.65048614		0.62320917		0.25968185		1.6449495086693693		0.8769789009360911		0.2062372317173024
12
Lattice="50.0 0.0 0.0 0.0 50.0 0.0 0.0 0.0 50.0" Properties=species:S:1:pos:R:3:forces:R:3 Energy=-11266.54084709936
C		1.64100988		0.2877303		-0.29126352		-1.2797927529212798		-1.3300487686779454		0.6092957498756029
C		1.43752058		-1.08146768		-0.07044735		-0.9186541171326161		1.5055481540365774		-0.5479597194798612
N		0.15753482		-1.46472406		0.38672045		1.2073861181238896		3.041910207662181		-0.14049181088899354
C		-1.06543658		-0.71742234		0.19348273		2.621902514923558		-1.1383672716444786		-1.1413675432998749
N		-0.76532663		0.62722315		0.05740536		-1.4482022699982917		-1.740141310758051		0.5524219717926215
C		0.47321345		1.22188777		-0.06466656		2.2912300627376703		1.8434150155570355		-0.636675838400762
O		-2.07531587		-1.36207268		-0.03616302		-0.6148150341039756		1.05725704140183		0.6625413929207388
O		0.55024541		2.46499392		-0.11631744		-0.02613356630943818		-1.4570505157052065		0.0022957893999043257
H		2.15401001		-1.89248804		-0.40859096		-0.5993730915959689		0.6618612847228456		0.7057921811105683
H		-0.111515		-2.3783186		0.31799408		-0.5075298942136833		-3.787593927889256		-0.11136393788340278
H		-1.57992237		1.15719118		-0.17200747		-0.7832899086223545		1.2209737296380794		-0.10258876292722142
H		2.56536016		0.692004		-0.71546312		0.057271939112490296		0.12223636165638962		0.14810057920274267
12
Lattice="50.0 0.0 0.0 0.0 50.0 0.0 0.0 0.0 50.0" Properties=species:S:1:pos:R:3:forces:R:3 Energy=-11266.10385857431
C		1.68504235		0.24788965		-0.1537172		-0.6599041096041394		0.43755269475649106		0.7840705983743893
C		1.39687218		-1.04224365		0.19510913		-0.9213788693774339		-1.6246273039029895		-0.033128509463785386
N		0.16819731		-1.61260808		0.026153		-1.7025033949502437		3.9435404853798053		-0.8598585423098906
C		-1.14841094		-0.68931005		-0.07031982		3.9050604818774035		-3.607620668831751		1.5382304742645303
N		-0.78437425		0.56413764		-0.25172599		2.1029608309239056		2.1121062447296888		-0.3167679265008519
C		0.55937795		1.20235689		-0.1409132		0.7156343124404138		2.1137847636920073		-0.6660808763229294
O		-2.17585667		-1.16868876		0.29388489		-1.829425592046903		-0.4734337243788143		-0.35368382512987384
O		0.63648154		2.46072266		-0.02986216		-0.5478683938969596		-3.3023102463303813		-0.24903761406217914
H		2.06959769		-1.73625439		0.74146554		0.5321610107026135		0.2260630078928413		-0.6822211304389347
H		-0.02239511		-2.55533746		0.22263697		-0.35496737123055494		-1.7971678637885555		0.6866223961856357
H		-1.49587552		1.18514106		0.06346073		-1.096682490944339		1.2618825514159293		0.03160693063604787
H		2.74185287		0.51978472		-0.06191264		-0.14308646531582622		0.7102301107877923		0.12024802476784191
12
Lattice="50.0 0.0 0.0 0.0 50.0 0.0 0.0 0.0 50.0" Properties=species:S:1:pos:R:3:forces:R:3 Energy=-11266.76134276969
C		1.64854734		0.21622576		-0.06523937		-0.8386280182324883		-1.347029310716359		-0.6449295422216921
C		1.43139315		-1.15646298		0.00557548		-2.3763358900763936		1.7390697778208295		0.9486101938759406
N		0.09142533		-1.56373857		0.16754917		-0.14244353526908066		-0.0027642958108376305		0.13769151963444468
C		-1.0645325		-0.69393552		0.00968704		-0.04781542182891718		-1.0173280156018008		0.9745967445088495
N		-0.73935853		0.63976392		-0.26647579		0.5513125922174404		-1.3202226296095203		-0.43584064860945854
C		0.56135028		1.21974133		-0.13135349		-0.48673352660950137		-0.2937358304657009		0.6845685475895336
O		-2.18933215		-1.15064459		0.24231415		1.0439407326890981		0.7176714488662216		-0.7022160851999167
O		0.61840964		2.43553878		-0.00344787		0.7003181482971467		-0.10921475278352817		-0.5178238712062301
H		2.21512543		-1.91114501		0.1125195		0.12860051037072817		-0.15666404952783938		-0.17102155216095064
H		-0.17876701		-2.46152077		0.64465734		0.3939531107170995		0.8174456766275968		-0.7717967691335981
H		-1.43432637		1.24407111		-0.70490657		-0.4246550644761838		0.1188704791370119		0.4860251362772637
H		2.63372514		0.51154152		-0.31031909		1.4984863622010516		0.8539014506418641		0.01213632664581417
12
Lattice="50.0 0.0 0.0 0.0 50.0 0.0 0.0 0.0 50.0" Properties=species:S:1:pos:R:3:forces:R:3 Energy=-11266.650917682347
C		1.64086697		0.3682478		-0.28373774		0.32903594504858685		-3.147240383582451		0.8400960152711585
C		1.4019609		-1.01885313		-0.0138327		0.42107439200197466		1.1017887017450936		-0.3876697460628615
N		0.14778687		-1.60007711		0.32529069		1.3856452227298013		0.9041119064512037		-2.0024638146528084
C		-1.01934959		-0.76773242		0.05380724		-1.4140704646741484		-3.0632089173943844		1.7410958585032112
N		-0.7156529		0.52399108		-0.1105058		-0.2401663312712887		1.9274504926659735		-0.459553829861689
C		0.5574042		1.26780163		-0.17525606		-2.116754953440873		-2.2038417643132155		0.6402801650236957
O		-2.16791451		-1.24049656		0.17516127		1.6698742451348583		0.6921990160136343		-0.607807903920829
O		0.51207391		2.44739497		-0.02829233		0.2810572581714078		2.6790265641844577		-0.17798636198670528
H		2.30371086		-1.6847677		-0.10090369		-0.7827856638780221		0.10969446920407443		0.3769024289855115
H		0.03533133		-2.63879634		0.16061166		-0.020374501003885943		1.2991207121102921		0.38089190685615565
H		-1.56663745		1.11011151		-0.08401641		0.3855533682388266		0.03702013114959731		-0.07656066326785722
H		2.64950142		0.80365061		-0.30056031		0.10191148294276278		-0.336120979656337		-0.26722410630904475
12
Lattice="50.0 0.0 0.0 0.0 50.0 0.0 0.0 0.0 50.0" Properties=species:S:1:pos:R:3:forces:R:3 Energy=-11266.448470667689
C		1.56087679		0.27400079		0.06966068		1.666071840727388		0.4963607651403908		0.21040992639643682
C		1.38170728		-1.05135453		0.10220666		-1.8007345494617795		-1.011397406295933		-0.02596454199018258
N		0.09927658		-1.54812046		0.08907082		-1.4399025434314736		0.7350561683154501		0.1867566518469544
C		-1.00817554		-0.7443158		0.05861416		-1.8866222492599742		1.6903815179039767		-0.6472196237726651
N		-0.81535015		0.63860756		-0.23822529		1.9042150223738536		-0.9060604940854816		1.1220514626072873
C		0.47348313		1.25430076		-0.02525032		-0.13852532837698484		-3.479548365886455		-1.3139499607442708
O		-2.12635693		-1.23353018		0.19642834		-0.03972256621931401		0.09648846081528639		-0.0912024270621626
O		0.78174193		2.38391989		-0.20510154		-0.5657469194118441		3.8243355571486535		-0.04998049634608717
H		2.00864354		-1.89839633		0.09754737		2.1328139092761536		-0.7354625568749501		-0.01717224348720714
H		-0.36702452		-2.46063254		0.1837976		1.3708830284652507		-0.6643100547585227		0.17384812008940875
H		-1.62050782		1.20439014		-0.46839012		-0.5702182220075946		0.26376988068638707		0.12878357291303116
H		2.58151659		0.71924754		-0.05003512		-0.6325114226736811		-0.3096135749529262		0.3236396109715192
12
Lattice="50.0 0.0 0.0 0.0 50.0 0.0 0.0 0.0 50.0" Properties=species:S:1:pos:R:3:forces:R:3 Energy=-11266.558190771486
C		1.65640202		0.34225132		-0.07012164		-2.17360296907057		-3.6988901502633422		0.589306708651802
C		1.32136271		-1.01040456		0.02662072		0.7648357131184019		1.1586774950703085		0.4090215747855706
N		0.06828962		-1.58107834		0.21237559		2.619570524391693		-2.239187335999302		0.4624811850325387
C		-1.0204941		-0.81807726		0.116864		-2.109540746612262		2.419325094234567		-0.4223603549395908
N		-0.70574147		0.56454207		0.13578791		-2.113446457943184		1.6357573007867618		-0.04156789835220311
C		0.51142305		1.22797271		-0.08167457		1.3187552496355994		-0.4948537901783876		-0.012509496552975076
O		-2.17625448		-1.16104556		-0.03677029		-0.46628235531051043		-0.8130641569528746		0.4383302477627168
O		0.67802592		2.40457222		-0.30358604		-1.076217230000238		1.8541191863417033		-0.007269794078113919
H		2.0842737		-1.75454643		-0.02212951		1.0559241815432643		-0.8367453536822645		0.1456382337425801
H		0.04983117		-2.59759628		0.54371534		-0.41741298688972744		1.6571471818356802		-0.9596852719970218
H		-1.59323791		1.1896791		0.12451796		1.7416006174681682		-1.2325759867433432		-0.16977688113947761
H		2.68304694		0.62734368		0.01542549		0.8558164596693656		0.5902905155504934		-0.43160825291582583
12
Lattice="50.0 0.0 0.0 0.0 50.0 0.0 0.0 0.0 50.0" Properties=species:S:1:pos:R:3:forces:R:3 Energy=-11266.38296951259
C		1.72102621		0.19906442		-0.00897005		-1.3780743524760741		0.4189744178158597		0.04711680168854401
C		1.32509657		-1.13065733		0.15397991		2.2074103011806874		2.952379460428032		-0.0669463830967039
N		0.04317128		-1.48341312		0.10784282		0.04843850295955913		-2.564389869136764		-0.8013331904253117
C		-1.0411867		-0.68596386		-0.00962623		0.699780324946038		2.1583453746564274		1.7486402978168423
N		-0.73868233		0.70292345		0.11554559		-0.9544184700952524		-2.715540959349912		-1.096915638575463
C		0.53206226		1.18370637		-0.16450476		1.897462020023309		1.476981244310195		0.8974510524365593
O		-2.08813038		-1.25393238		0.07864055		-3.450206782789344		-0.025178092967153932		-0.6987570773254517
O		0.6034446		2.40877413		-0.28297938		0.8566570561241486		-0.3236344173432123		-0.46530775296099686
H		2.04434875		-1.85063011		0.47720771		0.742311512794017		-1.1452912009305896		-0.009321842902030553
H		-0.32037344		-2.4560205		-0.03349062		0.9004640767634419		0.5240125164214451		0.48793983677239067
H		-1.50917264		1.35832217		-0.06119014		0.10521015682652532		0.03879722620562234		0.17398192029588977
H		2.7870291		0.63312388		0.1018361		-1.6750342948349928		-0.7954557515320119		-0.21654807514633106
12
Lattice="50.0 0.0 0.0 0.0 50.0 0.0 0.0 0.0 50.0" Properties=species:S:1:pos:R:3:forces:R:3 Energy=-11266.521234435293
C		1.59043331		0.23804796		-0.0774623		1.1091494100296098		-0.3805704675438141		1.4404011831709995
C		1.40690237		-1.06170804		0.22051241		-2.449328633541528		0.5134297017041466		-1.2469245933596518
N		0.09121772		-1.53212203		0.03196113		1.5338402128391924		-2.745316338965805		0.9974735459154176
C		-1.04432304		-0.73212247		-0.04948858		-2.1229909583756		-0.27768438225153763		2.528530539624793
N		-0.74483841		0.67005367		0.01195481		-1.1168926470366516		-2.8793041845526735		-0.3200792502119758
C		0.49439728		1.19409455		-0.06359344		2.2459142159421255		0.4681144205512889		-1.8281466739318415
O		-2.19399766		-1.19449226		0.14278388		1.9813180341343148		0.9870612467571855		-1.2331380298858634
O		0.7227267		2.37464653		-0.25613073		-0.37194580496440827		1.4950668464705446		0.4487990083455132
H		2.15705038		-1.75770784		0.55703003		0.5333415069901555		-0.6558187295870359		-0.08817577588873231
H		0.03011403		-2.58691514		0.26249433		-0.8909971208011924		2.1483236774845245		-0.5703936226625934
H		-1.51530606		1.30713772		-0.02976735		-0.9659768641812511		0.5797907474640429		-0.012789798215360923
H		2.60245514		0.59423976		0.04015936		0.514568597543171		0.7469074624691334		-0.11555663574482818
12
Lattice="50.0 0.0 0.0 0.0 50.0 0.0 0.0 0.0 50.0" Properties=species:S:1:pos:R:3:forces:R:3 Energy=-11266.47656837828
C		1.64620513		0.21513098		-0.14425933		-1.2567276439220396		-2.0007736228823148		-0.7126103352142307
C		1.36270944		-1.11941325		-0.04458528		-0.5239883480520962		1.2515928938766279		-0.15371910801163363
N		0.0575504		-1.48450421		-0.07977102		-1.908462176199408		-2.831747055743416		0.9518144054309924
C		-1.1056433		-0.69891467		0.12733723		-0.21313658125756496		0.43502447763433694		-1.312760979816425
N		-0.8062		0.63710346		-0.13053434		1.1268960893763862		1.9105690409418907		1.507517978982645
C		0.60255126		1.19075907		-0.1863596		-1.755299352059301		-1.7486930054308478		1.3458935002010812
O		-2.23499391		-1.14093859		0.32207329		1.103626114880366		-0.03705931476118014		0.33150523248717934
O		0.81457915		2.35273138		0.02712614		-0.3416076108750575		2.0128312737725884		-0.3982054067488983
H		2.00633834		-1.97734507		0.12120686		0.8518706905517994		-0.045649421714623176		-0.1963278917518416
H		-0.14169747		-2.50216531		0.08071335		0.053832471621754266		0.9540174294302466		-0.19615372522634147
H		-1.3493742		1.32336253		0.46779589		0.05531342702016049		-0.7405508213759119		-1.2119376905591164
H		2.57629434		0.61160601		-0.33850769		2.807682867492938		0.8404381776746653		0.04498402022658926
12
Lattice="50.0 0.0 0.0 0.0 50.0 0.0 0.0 0.0 50.0" Properties=species:S:1:pos:R:3:forces:R:3 Energy=-11266.888266291042
C		1.65708008		0.22180065		-0.07438111		-1.0274365132151098		1.1862084559266806		0.1551401052852294
C		1.35931391		-1.08996665		-0.04436882		-0.3902755590772447		0.9308998185052502		0.006411971232412088
N		0.09713199		-1.55402814		0.06967089		-1.9982852064364927		1.456118439401335		0.1711013077798023
C		-1.11977913		-0.72691732		0.10291367		3.1920069913290248		0.7101258782672168		-0.39881157002099593
N		-0.7615577		0.65768689		0.04992066		0.4033409281252466		-1.3440500706845024		-0.4206797790947744
C		0.55087312		1.19569077		-0.07992495		1.5299111044698586		2.77186693820167		0.4824609702850994
O		-2.21248518		-1.21576415		0.1347979		-1.047777178501907		-0.12637511777431057		0.027312159980669798
O		0.75044131		2.45052208		-0.13453919		-1.0148715836788194		-2.899962535341254		-0.13411177275735955
H		2.17953915		-1.73837264		-0.13814996		1.1465205995995165		-1.8462355156821249		0.008744835939339014
H		-0.1282697		-2.51649156		-0.01722994		-0.13476046207509898		-1.4378917865237002		-0.008066681779818828
H		-1.46280797		1.29469339		-0.30389982		-0.7469131188960022		0.4116119611812204		0.29632832516591096
H		2.68860728		0.57574064		-0.067521		0.08853999835702786		0.18768353452251943		-0.18582982059345182
12
Lattice="50.0 0.0 0.0 0.0 50.0 0.0 0.0 0.0 50.0" Properties=species:S:1:pos:R:3:forces:R:3 Energy=-11266.248242951731
C		1.71020095		0.26248816		0.19246265		-2.5373420699791227		0.3289594290196692		-0.9859777839014765
C		1.39228043		-1.0534844		0.04958986		-0.8126359140168355		-2.069269558408726		-0.5402279495927444
N		0.04182379		-1.56678243		0.04401889		1.1550594901787647		0.3612930048201226		-0.5248287902406916
C		-1.10366078		-0.79332244		0.08906004		1.2964362747624312		2.6181815116409375		-0.5023995150435796
N		-0.74156464		0.59210961		-0.13503736		-0.543078737312614		2.867939445953841		1.2388935470691071
C		0.52505367		1.22140259		-0.10855173		3.173282521464864		0.039904703164493		0.7689980719629851
O		-2.23431562		-1.17556793		0.1906688		-1.0915745317934609		-0.6326179691870665		0.1655998155850354
O		0.74778466		2.44335201		-0.270936		-1.3496716333950778		-2.078360464828317		0.2197647308404944
H		2.04607506		-1.95065311		-0.18365959		0.0973003123371627		1.0937287048333926		0.6999959376538684
H		-0.16224597		-2.49094772		-0.35992676		0.4274045507330373		-0.017307534933499038		0.4501715146142236
H		-1.33160252		1.47235475		0.13026612		-0.16387265135164414		-2.387836794296579		-0.8369626633181556
H		2.69406106		0.71444699		0.29829727		0.34869238837249555		-0.12461447777826784		-0.15302691562906606
12
Lattice="50.0 0.0 0.0 0.0 50.0 0.0 0.0 0.0 50.0" Properties=species:S:1:pos:R:3:forces:R:3 Energy=-11266.353321793178
C		1.69629034		0.24394958		-0.17399513		-4.3098457528925955		-1.867722841539376		1.148291369741861
C		1.30135064		-1.05863233		0.10320772		3.136110849497242		2.264932922847595		-1.2834851141151187
N		0.04662129		-1.46800231		0.08802822		0.3921118409271435		-4.3688096321257035		0.5605593074862393
C		-1.03292074		-0.72258887		0.06184675		-1.6275270968483688		2.418267496676268		-1.2456654213165694
N		-0.71424555		0.58558981		-0.4035139		-3.282324290430328		0.12523740464272246		1.0888759533784276
C		0.51764106		1.16797453		-0.09780712		1.9135604165804845		0.455473694894955		-1.278346301726774
O		-2.13449665		-1.15259554		0.31142676		-1.3878251068009557		0.01231836074686827		0.06009213070520528
O		0.67662305		2.36064937		0.0592698		-0.43691860930448606		1.0970035703022432		0.2550073555575671
H		1.96671611		-1.8713103		0.23795852		1.3862201728099952		-1.0225365563068203		0.1450330989117313
H		-0.13512346		-2.49874228		0.11675811		0.06416110708438884		0.9731822778371844		0.381635418457043
H		-1.63312733		1.17247126		-0.37702426		2.1450881498934447		-0.6267095227901125		0.017408682130327688
H		2.64130185		0.68485614		-0.2076805		2.007188268061974		0.5393628248141754		0.1505935207900598
12
Lattice="50.0 0.0 0.0 0.0 50.0 0.0 0.0 0.0 50.0" Properties=species:S:1:pos:R:3:forces:R:3 Energy=-11267.005085803044
C		1.68397794		0.25885884		0.06599503		0.6856243967977098		1.03811528150093		-0.7373188419071399
C		1.37387731		-1.07146497		0.02210892		-0.5348380432734825		0.249674219195244		0.8222185696195853
N		0.07250495		-1.56539637		0.09496968		0.692647673508464		2.582019511869417		-0.5285599750916762
C		-1.06989972		-0.70151508		0.05197163		0.743590996551765		-1.4577507813515782		-0.05507637131229061
N		-0.67554576		0.5925586		-0.22593498		-1.636252083871604		-0.6652932445924645		0.21700537154765145
C		0.56902857		1.19249421		-0.0727332		0.22177327659958285		-0.6987308006515425		-0.12742042545968565
O		-2.19088921		-1.16188524		0.20502521		0.042428035190714954		0.6626575039377387		-0.11447368710974365
O		0.58941988		2.39598881		-0.14570003		0.7873989942102448		1.9422289363022567		0.04409524129929575
H		2.15100556		-1.80748203		0.05995817		0.7202149383409218		-0.8950696453026847		-0.031077180548742974
H		-0.10691691		-2.50008838		0.36639562		-0.2553439129562674		-1.4851477877352817		0.23603230598311262
H		-1.41913725		1.28441014		-0.33955584		-0.2356238091190522		0.006544177354957312		0.045258099819419306
H		2.70747639		0.78547919		-0.01290993		-1.2316205134010592		-1.2792473705269918		0.22931694458227703
12
Lattice="50.0 0.0 0.0 0.0 50.0 0.0 0.0 0.0 50.0" Properties=species:S:1:pos:R:3:forces:R:3 Energy=-11266.6563314128
C		1.6104087		0.24863072		-0.06460871		-0.9084376331881734		-1.5133005441707343		0.07054793292826549
C		1.37364448		-1.13169907		0.08095026		-1.0490174786480722		4.175100460325918		-0.33911513208630234
N		0.11199213		-1.59796819		0.15965713		-1.1951861309647691		-2.0543817914676854		-0.37159731764722076
C		-1.02264872		-0.72098834		0.02861076		-0.6449137042264592		-2.5311686971164535		1.0909963935453955
N		-0.71926592		0.55765169		-0.2497569		-1.17946270408694		2.672352443277703		-1.3937169952938022
C		0.53263025		1.22296284		-0.17120621		0.5624699456384331		2.848990878741546		0.9236118724390932
O		-2.15850066		-1.13551132		0.2472724		0.3572307647311192		0.019037116003825207		-0.5538444603060282
O		0.61868577		2.49964615		-0.07060311		-0.37399379144539174		-3.8050216361826887		-0.7709313872447169
H		2.21981405		-1.69655928		0.28233288		1.698605088396314		-2.0346520202827305		0.3136655306294406
H		-0.10032289		-2.66252723		0.18405967		0.2500276430304262		2.289764688224184		0.13881468032236094
H		-1.57629109		1.12832451		-0.55094016		1.4010822287198135		-0.6544386128530836		0.9181309490693043
H		2.61949785		0.57536824		0.03481726		1.081595823465762		0.5877177669222622		-0.02656206635578953
12
Lattice="50.0 0.0 0.0 0.0 50.0 0.0 0.0 0.0 50.0" Properties=species:S:1:pos:R:3:forces:R:3 Energy=-11266.518055487039
C		1.58566194		0.2906526		0.15756239		3.5585370246767623		-1.2418938187245032		0.5021667273668926
C		1.33999845		-1.0187331		0.02533958		-0.44153929299163835		-0.9005630128115854		0.25784369367788973
N		0.07700077		-1.5243193		0.0539316		0.7491823745116851		-0.21984078407085006		-0.2629212109678004
C		-1.05924237		-0.77529533		0.09361974		1.9010997709868311		3.125853896389655		-0.11486068955170214
N		-0.70099446		0.6207414		0.05270237		-3.0514025661232775		0.6524826718638761		0.046454228413944566