12
Lattice="50.0 0.0 0.0 0.0 50.0 0.0 0.0 0.0 50.0" Properties=species:S:1:pos:R:3:forces:R:3 Energy=-11266.113756984616
C		1.6573889		0.22426323		-0.08342538		-0.49604133128848454		-1.547817192210213		-0.4125749421446216
C		1.39691284		-1.14837422		0.10483924		-1.3039649789249537		2.1010119861793157		-1.2186422533268384
N		0.07386198		-1.65028052		0.04017112		0.3657361281256534		-0.2019955286303672		2.072939756693651
C		-1.00058879		-0.73980521		-0.01952122		-3.131864518424686		-1.2248514159449688		0.5102344890100227
N		-0.78758549		0.57347375		-0.39266792		4.085210735673843		0.9981566365929324		0.47110106536013724
C		0.53400197		1.25364339		-0.11852999		0.5693788596823104		-0.6566125833870566		0.05884118619211401
O		-2.19246744		-1.03133531		0.24687706		2.222583717678608		-0.5362066928875096		-0.11239510450160556
O		0.66999318		2.46242026		0.10608545		-0.6732596533505164		-1.9721692778944733		-0.6096936537947997
H		2.11637785		-1.96712389		0.1300881		0.6490642874187424		0.09545765415152073		0.17362654242233472
H		-0.10068561		-2.43671301		0.75983946		-0.11635707156884177		1.08855775365602		-1.6707626126856525
H		-1.46530877		1.04847711		0.14588702		-1.8527012229697917		1.5098132541619245		0.15783071328058382
H		2.70002265		0.49202354		-0.35213872		-0.31778495205188234		0.3466554576349376		0.5794948134946739
12
Lattice="50.0 0.0 0.0 0.0 50.0 0.0 0.0 0.0 50.0" Properties=species:S:1:pos:R:3:forces:R:3 Energy=-11266.683526414887
C		1.63885067		0.29164175		-0.15136958		1.6785695102060008		-0.02230730206499341		-0.8046953191341311
C		1.45506701		-1.06851643		-0.10704005		-1.9057369097339663		1.8846398773306698		0.9733871947560262
N		0.1720603		-1.4869177		0.16247791		0.41439687723909835		-3.133372418983814		0.18978217173501094
C		-1.0235581		-0.75532891		0.19438815		1.1831015863358365		0.9855172993322845		-1.397799187143034
N		-0.77438732		0.61193939		0.23645124		0.9746668842020241		-1.6632980832570605		-0.3480139256806006
C		0.52576437		1.20705115		-0.14546206		-2.817114702186538		3.6260608775347194		1.9847090620422279
O		-2.08413506		-1.30270409		-0.00951824		-1.066472543478725		-0.29584089543599806		0.7779112123127054
O		0.4566435		2.47002099		-0.18853752		1.3450530580124858		-2.591742292592328		-0.6384533448332865
H		2.26273384		-1.77624658		-0.16679284		0.4539541215276528		-0.7228307272354193		0.01813136779592495
H		-0.03155584		-2.51648062		0.25515196		0.3016265459478341		1.0699417329215541		-0.364878356702014
H		-1.65344917		1.13130674		0.24878266		0.28632817383817294		0.7646150610484518		-0.22062219373175915
H		2.69144656		0.66598766		-0.24267593		-0.848372550487814		0.09861681997987091		-0.16945862999500763
12
Lattice="50.0 0.0 0.0 0.0 50.0 0.0 0.0 0.0 50.0" Properties=species:S:1:pos:R:3:forces:R:3 Energy=-11266.823998815502
C		1.62505516		0.11227036		-0.15193622		-0.8968972368240303		2.5070842485733724		0.7664628100182758
C		1.29545117		-1.19370531		-0.22592957		0.6101912650930766		0.6102591422155035		-0.2506527296215035
N		-0.01170458		-1.59369457		-0.18437813		0.04515705546671555		1.3337194811834954		0.10603008161220545
C		-1.07585191		-0.67177794		0.10538533		2.013500943291805		0.5558793855831508		-0.5161502887619063
N		-0.71003455		0.70895164		-0.06557357		0.8076718852187401		-2.6973977644796245		0.40007115344057786
C		0.59336116		1.2335496		0.01276169		0.4218725138331783		-1.9009431908066874		-1.5478048509152267
O		-2.12574943		-1.1231746		0.45364022		-1.99031267845301		0.0730533700767567		0.35809367836100303
O		0.72569386		2.4438177		-0.01322659		0.7328332954000921		0.21746163950772293		0.476012540810414
H		2.14099611		-1.87959885		-0.3962831		-0.47540997708268756		-0.5700564996212063		0.11889084227374
H		-0.20923411		-2.53166514		0.11254344		-0.4277769493092616		-0.8470785657084565		0.044455195736408375
H		-1.36418221		1.44976961		-0.00127675		-1.6988958801594387		0.773627497400753		0.2386795651798262
H		2.6348479		0.48575955		-0.13948445		0.8580658149468824		-0.055608692502717744		-0.19408804955587702
12
Lattice="50.0 0.0 0.0 0.0 50.0 0.0 0.0 0.0 50.0" Properties=species:S:1:pos:R:3:forces:R:3 Energy=-11266.604699548398
C		1.72072532		0.20167165		0.05975068		-0.41523433694807216		-0.7354149400451264		-0.6474843445501302
C		1.39747811		-1.1364308		0.01052314		-1.4210429363872072		-1.6380184317165785		0.9450386231067844
N		0.05098345		-1.58392593		-0.07589547		1.0022937986269176		2.8487492978921813		-0.11498826768862734
C		-1.08599981		-0.66717168		0.05361227		1.5134248827177255		-1.2970744739794318		-0.9952485132734373
N		-0.72843234		0.60340367		-0.359246		0.8976596203218351		0.05325510470462562		1.2901826834823484
C		0.61004692		1.1820153		-0.08527164		-1.1317610792822133		1.6662600968979981		-0.5819618897845814
O		-2.17832536		-1.07461954		0.3644244		-0.6749580726510012		0.034570744049170786		0.28877298437504184
O		0.57924569		2.42648285		-0.0463918		1.1861044805164174		-1.730997850990641		0.19878447794101034
H		2.03712833		-2.08762317		0.24151848		-0.2636305783192245		1.9795239183756204		-0.6315951329429798
H		-0.06999164		-2.47099038		0.33996557		-0.7187073977362316		-1.6170222379777366		0.47632667818988844
H		-1.45434055		1.31636939		-0.15077878		0.29986950549616254		-0.2546760946312986		-0.3622334629201729
H		2.79965919		0.41332072		0.10589244		-0.274017834933046		0.6908449188432791		0.13440606122073037
12
Lattice="50.0 0.0 0.0 0.0 50.0 0.0 0.0 0.0 50.0" Properties=species:S:1:pos:R:3:forces:R:3 Energy=-11266.509099323133
C		1.58487425		0.19072553		-0.04776351		-0.3832390668964422		-1.3730827100304461		-0.31437849752523583
C		1.34756737		-1.19514062		0.00222476		0.8404267105547402		3.1508547375075624		-0.4807830683875302
N		0.07958647		-1.56393256		-0.0004922		-3.555911208480088		-3.1268694307008746		1.0909447143726387
C		-1.04140516		-0.67636142		0.05511203		2.442533876476278		-1.3413161653125698		-0.931368633448558
N		-0.73383705		0.61229023		-0.34608041		0.31980882158557933		-0.639352511017194		0.8280380558485101
C		0.54531376		1.25590808		-0.10274925		0.11363910703626677		-2.397256082006942		0.16124472685040972
O		-2.1341228		-1.09600108		0.34127423		-1.2804628852390585		-0.0792553336061448		0.29808372011158435
O		0.70055159		2.44250995		0.04041826		-0.11772356145624618		0.7953479708891279		-0.18808920317314534
H		2.08137625		-2.0053867		-0.04721733		0.43044210338370587		0.1505070288810279		0.12091861988418273
H		-0.23009231		-2.56665159		0.26827292		0.684853322971352		1.851384663905021		-0.5723337770786304
H		-1.61780202		1.00791248		-0.11865175		-1.098431046755707		2.2474270530192473		-0.12658903355408035
H		2.58295104		0.47788868		-0.23666196		1.6040638268196197		0.7616107270501227		0.11431242752191718
12
Lattice="50.0 0.0 0.0 0.0 50.0 0.0 0.0 0.0 50.0" Properties=species:S:1:pos:R:3:forces:R:3 Energy=-11266.52879598406
C		1.57350676		0.29983403		-0.00254356		3.0375436518076295		-0.633279514020417		0.6729037098342744
C		1.41468841		-1.05986371		0.07573058		-0.975263945769069		0.04200380317554651		0.7475683388156723
N		0.16679387		-1.60134332		-0.02298586		-2.110548824724427		4.9204199066626355		0.4331174390265143
C		-1.05139109		-0.79848817		0.13101961		0.925741979953801		0.18332417775671087		-0.9271054359395209
N		-0.72219713		0.60139335		0.16350227		-0.8778505563165906		-0.5359547247815307		-0.4358219309787288
C		0.5228879		1.29614241		-0.07640694		-0.20062394795878077		-0.8550614295264906		-0.9002247070627621
O		-2.20540935		-1.24217699		0.12094257		1.8864530706745315		0.5075993139979836		0.19881857076841117
O		0.64489818		2.48243335		-0.37575312		-0.6134006702764351		-0.7692884009275475		0.6601304695230207
H		2.12149235		-1.82311763		0.47113358		0.5205738202616458		0.6024295161435546		-0.801401684612488
H		-0.01668407		-2.52393884		0.02135909		-0.5641507271714994		-4.525028880813395		0.24100929314094402
H		-1.58407912		1.1104508		-0.02738906		-0.18346682255793237		0.5835649725812937		0.23923266088348097
H		2.65890741		0.57197355		0.10215283		-0.8450069250787485		0.4792712083295947		-0.12822677482088035
12
Lattice="50.0 0.0 0.0 0.0 50.0 0.0 0.0 0.0 50.0" Properties=species:S:1:pos:R:3:forces:R:3 Energy=-11266.860744379148
C		1.65063569		0.24269804		0.05761142		-0.13319774559740574		-0.13360120309934656		-0.9653719350386519
C		1.38999552		-1.10764001		0.08708455		1.3825463235586364		-0.01855112609166072		0.43257020543797825
N		0.10424994		-1.57892788		0.1425355		0.011491699671007905		2.4320997743635693		0.060895703275027996
C		-1.06372083		-0.73904766		0.1039026		3.349374134716671		2.245129978067782		-0.79684419864008
N		-0.77148438		0.67382106		0.02157148		2.189460864641691		-3.2661182160743936		0.6977676139998916
C		0.52859699		1.20466174		-0.06314474		0.3889979265137447		2.148109710282693		-0.47056756146227385
O		-2.14361701		-1.18855376		0.0002365		-3.4885396163490294		-1.4580481551386955		0.19127294874734405
O		0.63351723		2.43547635		-0.28729157		0.2155381458399179		-1.8331303973798532		0.4013573734885062
H		2.26680519		-1.86677253		0.11294778		-1.4612364258543895		0.8921522660119493		-0.13983263147051544
H		-0.06742739		-2.51491247		0.38486448		-0.5011229623433908		-1.9028706439733005		0.2507129962786886
H		-1.47597129		1.33517571		-0.18834116		-1.5193322492513681		0.8481977668975647		-0.23459125410516346
H		2.66413837		0.59002416		-0.24522035		-0.4339800955460859		0.04663024613369263		0.5726307394892484
12
Lattice="50.0 0.0 0.0 0.0 50.0 0.0 0.0 0.0 50.0" Properties=species:S:1:pos:R:3:forces:R:3 Energy=-11266.439158695024
C		1.60492538		0.19395906		0.03594628		0.3669973570512336		2.2982581217002314		-0.9688343881913007
C		1.30237693		-1.07940547		-0.00830414		-0.10703800545818322		-3.513372101634492		-0.4679202508434978
N		0.04354166		-1.63117058		-0.11591029		-0.10184550843664629		4.3318038477315275		0.9013451423813686
C		-1.04094095		-0.74586659		0.12798487		-0.42797024484199103		1.0340064016012893		-0.8091160224204359
N		-0.66319878		0.67502765		0.23902473		3.0343335267153972		-5.865685866707488		-0.507303534294802
C		0.55872377		1.22465532		-0.09562316		1.1919941578605793		-1.7861458532359171		1.4554034670451044
O		-2.20775807		-1.08542881		0.11822527		0.09256398043157235		-0.13330136105323173		0.3922927437428238
O		0.72131068		2.39985946		-0.26933054		0.1326736005149073		2.047367719306109		-0.6450790775792812
H		2.08451099		-1.84012191		-0.06092337		0.37129660142604437		-0.1819660182434225		0.022357027199377398
H		-0.05888532		-2.59528705		-0.02945752		-0.7134245521509793		-2.3105181184062253		0.16553286405973244
H		-1.35076342		1.29883467		0.25809331		-4.627109388075414		3.3917539360128117		0.14574251768521784
H		2.63440597		0.40506769		-0.19692277		0.7875284749634803		0.6877993443508691		0.3155794597936309
12
Lattice="50.0 0.0 0.0 0.0 50.0 0.0 0.0 0.0 50.0" Properties=species:S:1:pos:R:3:forces:R:3 Energy=-11266.540657178215
C		1.55709057		0.25793502		0.05940571		1.463095436255889		1.633073171971275		-0.2239406136875004
C		1.29420737		-1.04504968		0.13190333		0.3886011538799216		-2.5599079735961503		0.10936567653680324
N		0.07038185		-1.61149078		-0.01760489		-0.9350201655248158		-0.5539096634812081		0.3328494051994828
C		-1.04556626		-0.78597589		0.0485923		3.558393762810791		2.083305416041246		-1.2553110689458138
N		-0.73958425		0.55668287		-0.21250147		0.48925886409615865		2.18800546600832		-0.9670704057611992
C		0.56871665		1.29490231		-0.23634286		-0.4939432597186799		-0.8624095908277701		2.3767555455280043
O		-2.10194711		-1.21723735		0.30069995		-4.723645825674962		-1.4236184103847482		0.8499845807233917
O		0.72297556		2.51967979		-0.13805537		-0.8607460356856231		-1.7152933474317922		-1.028189177943112
H		2.07162373		-1.80087864		0.32577939		0.24985872155529543		0.2436119179874556		0.14071338855606758
H		-0.22637299		-2.56885501		0.28577861		0.9221383218176791		0.6237187127942062		-0.3162876444376187
H		-1.53423584		1.17967792		-0.40401223		-0.17549115782864055		-0.24754544865415992		0.36002601662354855
H		2.58414177		0.48907365		0.36407046		0.11750013259492414		0.5909698009953873		-0.37889565096999145
12
Lattice="50.0 0.0 0.0 0.0 50.0 0.0 0.0 0.0 50.0" Properties=species:S:1:pos:R:3:forces:R:3 Energy=-11266.73509018084
C		1.63261766		0.23422211		0.07402308		0.3476150961642799		1.0057570745325657		-0.6760896665571583
C		1.3948182		-1.1327047		0.09428481		1.3374457295164852		1.7759173365288623		0.11887963226412705
N		0.09741626		-1.55760662		0.13095071		-0.42132183496645836		-1.6860499290518882		-0.15804262359991827
C		-1.03079305		-0.68816048		0.02959325		-1.8484133428707812		-3.7976872045720813		0.7693483076302956
N		-0.76191065		0.58086653		-0.19747862		4.131959303973221		1.1930928416467717		-0.4333128942858664
C		0.53602891		1.23912653		-0.13424221		0.5961480541056271		-2.293988650699576		0.8371961709037168
O		-2.1655076		-1.17917666		0.16081894		0.9904255351926274		0.6038536501629594		-0.16563282854912487
O		0.63272643		2.44492965		-0.17090415		-0.09927245127604033		0.5334954646451148		-0.2297517695423091
H		2.35621004		-1.7453235		0.06977421		-1.5773558760726745		-0.21352759462039414		0.262431878621577
H		-0.19642416		-2.57103371		0.26730885		0.5318205452271673		1.4834066881229677		-0.27105350729929867
H		-1.4434326		1.24761497		-0.11247364		-3.077206259902134		2.079574951099136		0.03980000784535567
H		2.66945221		0.69140863		0.09950199		-0.9118444990913196		-0.6838447306385624		-0.0937726560093341
12
Lattice="50.0 0.0 0.0 0.0 50.0 0.0 0.0 0.0 50.0" Properties=species:S:1:pos:R:3:forces:R:3 Energy=-11266.35712185691
C		1.70134633		0.24282457		0.06584487		-0.712792626425597		1.4726491926595449		-1.1135724273087246
C		1.41347539		-1.06600793		-0.00129194		1.4145771262554157		-0.5011729960101494		-0.3706174188252753
N		0.14699985		-1.42311262		0.27830857		-1.4764032089062549		-2.1909783297044334		-0.10354670452850301
C		-1.01702501		-0.72748566		0.05710593		-3.404456933786767		0.20466083697099882		0.4446656515441487
N		-0.84407611		0.62904454		0.07659206		3.6628161850627263		-1.0841794735712318		0.061490810803700044
C		0.48922897		1.1707837		-0.05618516		0.1257320848834401		-1.8649790117093912		1.1864981678264939
O		-2.17619649		-1.18628311		-0.06203828		2.051519022407266		-0.3498596177679269		0.2571657966286818
O		0.65346471		2.32195147		-0.28335408		0.20443761379792658		3.290756171697628		-0.7006588194608426
H		2.01522616		-1.94728092		-0.36867723		0.25047367800007114		0.8717455747969731		0.7608096741613597
H		0.03189471		-2.41146905		0.4213138		-0.6213104119216729		-0.7752713578929838		-0.145750745215209
H		-1.66977429		1.14950175		-0.07674569		-1.1484194106773482		1.2837557998518276		-0.4209292789417558
H		2.65402415		0.74402829		-0.20727519		-0.34617306726714425		-0.3571268407429186		0.14444534473798887
12
Lattice="50.0 0.0 0.0 0.0 50.0 0.0 0.0 0.0 50.0" Properties=species:S:1:pos:R:3:forces:R:3 Energy=-11266.50563737883
C		1.62042421		0.21041727		-0.35750869		-0.8714749404823267		-0.1899644115243148		0.9134028446937049
C		1.32852376		-1.10248194		-0.17798893		-0.4749550460962397		-1.2094747280342044		-0.042076771082155476
N		0.02895289		-1.56712239		0.11249694		-1.0145156915846396		-1.3478581315188418		-2.1483721170673475
C		-1.08431041		-0.64609006		0.11813723		-0.14143586853341505		-4.918975512350627		0.33184060717844344
N		-0.60780383		0.57608876		0.39185623		-2.2321041011637375		1.578860125665368		0.2616863101381919
C		0.54271428		1.18938072		-0.04290961		3.2014475163511777		-0.17998806861148858		-1.0074303998665772
O		-2.25628498		-1.08317683		0.05950148		2.033996286142436		1.6736300097316914		0.027994736437560227
O		0.76891352		2.38493907		-0.12464312		-1.0545441162313745		0.594489949702099		0.3847007390214317
H		2.05868398		-1.93473134		-0.21496135		0.061700921350848925		0.29982034600446544		-0.18485655521756175
H		-0.28996774		-2.5140965		-0.35625288		0.9351265063499513		1.9800035833741043		1.3780388712529872
H		-1.43438644		1.11798282		0.5511867		-0.6129585433835361		1.6727498697108887		0.3026962791128704
H		2.63386054		0.59553578		-0.47191835		0.16971707728085447		0.046706916428797624		-0.2176245446015476
12
Lattice="50.0 0.0 0.0 0.0 50.0 0.0 0.0 0.0 50.0" Properties=species:S:1:pos:R:3:forces:R:3 Energy=-11266.381484144904
C		1.65159098		0.21497683		-0.09005143		0.657037740999349		-0.8917966824501444		-0.8443182293964271
C		1.22372126		-1.04919303		-0.3375133		1.935289220442975		1.0132185186374107		1.2063360281867073
N		-0.01180097		-1.50018793		-0.11478691		1.3266171687627635		-1.3358685634392449		-0.9131776674822599
C		-1.06097636		-0.70144768		0.10695931		-1.8866432294614517		1.601248057524275		-0.011956915069944752
N		-0.77787761		0.59715296		-0.26887642		1.5192984135342795		2.2106469600571415		0.928746879594817
C		0.62148443		1.15488221		-0.02476543		-2.4579378180801377		0.424428550291115		-0.6529741125146596
O		-2.11388921		-1.11839287		0.52657031		-1.4438388508895497		-0.3992059772399465		0.500041710636367
O		0.77723832		2.33810409		0.09686227		-0.29449574570450815		2.0066332697420086		0.3492286690617309
H		1.9798909		-1.76482943		-0.42855623		1.3296863459818355		-1.9055104983930224		-0.4341108618508827
H		-0.04614966		-2.45795295		0.16020019		-0.7131782918939318		-1.1589704465600559		0.12319471463417078
H		-1.46898042		1.37616346		-0.09617213		0.43489962486672135		-1.2290663281373704		-0.1098467813530355
H		2.70149157		0.57228019		-0.08635663		-0.4067345271362819		-0.33575686003216637		-0.14116343444658325
12
Lattice="50.0 0.0 0.0 0.0 50.0 0.0 0.0 0.0 50.0" Properties=species:S:1:pos:R:3:forces:R:3 Energy=-11266.32562298604
C		1.65786229		0.16675803		-0.44814527		-1.3181570567831806		-0.6469615364412553		1.2113503991839358
C		1.30512424		-1.13594815		-0.10193746		0.45391185259232325		0.2553857705150974		-1.8906679828669333
N		0.00651999		-1.57330078		-0.02455001		0.6618058517395301		-1.598024614117869		0.07530683911926905
C		-1.0270724		-0.69938863		0.10792953		-2.070767328821552		1.2833690030981186		-0.072861205829401
N		-0.74059473		0.6313444		-0.10349978		1.6818844334614957		0.8640107195861098		0.6158264546501996
C		0.65413955		1.18825775		-0.19426131		-3.2093075328620313		3.942598278929632		2.690902540928114
O		-2.16031193		-1.05862121		0.3885202		-0.4419106117045513		-0.6645468019340179		0.1865720980648405
O		0.66859652		2.42011797		0.21738506		1.3111873618614938		-4.074467432699655		-2.150377886035064
H		2.10562541		-1.88579419		-0.11354725		-0.10041139853712712		-0.3189794865624718		0.16416596279582849
H		-0.36658532		-2.56486754		-0.04491674		1.1107257019317884		1.0421427602757207		0.31140321699218776
H		-1.42115068		1.25348544		0.42901576		0.9891841551831511		-0.5369749385004328		-1.1000603033822036
H		2.69920952		0.39920914		-0.52721606		0.9318545719386602		0.45244822642896093		-0.04156008219871152
12
Lattice="50.0 0.0 0.0 0.0 50.0 0.0 0.0 0.0 50.0" Properties=species:S:1:pos:R:3:forces:R:3 Energy=-11266.414894800999
C		1.50049638		0.17741255		-0.0338774		4.763587089925853		-2.203881307879235		0.08734021879606903
C		1.33929946		-1.18146128		-0.04054068		-1.0597921490803517		1.4848226974565064		-0.770332114528987
N		-0.00499111		-1.54818231		-0.03152468		2.740522722882652		0.43038245379127		0.1835852475677424
C		-1.04203238		-0.72294181		0.12953171		-3.0197265756573666		3.3167764552035006		-1.0195928489201131
N		-0.73584299		0.7139616		-0.12608455		0.898738917990486		-3.067179266257799		0.8839751810640618
C		0.54199433		1.1927655		-0.05467801		0.21597240515726307		1.7943865472750489		-0.3253184384662125
O		-2.19911341		-1.09150513		0.29345395		0.49924837105697073		-0.0028999986336290906		0.1404908338698071
O		0.89907417		2.37734251		-0.113592		-0.9676852593618499		0.02582035452708775		0.04376814556008526
H		2.14414225		-1.92836581		-0.26150053		-0.6565695431207904		0.3267120277805252		0.4466577936653174
H		-0.23374078		-2.48551777		-0.02964287		-0.8917768335340409		-2.916549852868153		0.14208095830678333
H		-1.41144469		1.41594667		-0.26475983		-1.9980775127262786		0.8773853409176536		0.036277442301709074
H		2.55207414		0.54612999		-0.11601236		-0.5244416849546083		-0.06577539989071407		0.15106758078373714
12
Lattice="50.0 0.0 0.0 0.0 50.0 0.0 0.0 0.0 50.0" Properties=species:S:1:pos:R:3:forces:R:3 Energy=-11265.972699389755
C		1.71550107		0.14740952		-0.09770583		-2.2244982639075475		3.6596457578027004		0.09240472630418123
C		1.34980227		-1.08210059		-0.36394763		-0.7057023467674772		-1.548328173244726		0.07359345599861297
N		0.07602391		-1.58866571		-0.13344256		-1.4810576768884334		-1.626950501262177		-0.01144012334237591
C		-1.1247468		-0.77436366		0.05280195		4.587573278254525		1.9916305744914045		0.7088276254566763
N		-0.74870488		0.57679797		-0.02391603		3.745432001871692		-0.3372183264689061		-0.58669755320336
C		0.5291207		1.17742376		0.01172808		2.2211200915152456		-1.1496787369866182		-0.030860076601101613
O		-2.20899059		-0.93494202		0.48792517		-3.2208266404923234		-3.0649592215558763		0.2635072167914198
O		0.7256842		2.38383678		0.03080748		-0.6140892116925691		-0.14609126211271753		-0.029838525908575983
H		2.08170133		-1.73551746		-0.80427077		0.44923013091704916		-1.1505316233143252		-0.05566937053640244
H		0.11072759		-2.63257369		0.04935486		-0.8611540183290589		1.4038223561613024		-0.31893690909476763
H		-1.42834005		1.23416641		-0.24050873		-2.379638626303089		1.6573807922653658		-0.10379959823160584
H		2.70079648		0.53158495		-0.32164441		0.48361133324404887		0.3112783642245721		-0.0010908162106385893
12
Lattice="50.0 0.0 0.0 0.0 50.0 0.0 0.0 0.0 50.0" Properties=species:S:1:pos:R:3:forces:R:3 Energy=-11266.29959050207
C		1.64459888		0.24998008		-0.1724874		2.4435096101111657		-0.06871000557236841		-0.03526807863798283
C		1.46855846		-1.06262826		0.03183029		-2.9592646689011217		-1.3144609417787834		0.8637488784441414
N		0.11682669		-1.53152496		0.19251848		1.221847339056952		0.832590451036736		-1.618850600830019
C		-1.03561085		-0.74874424		-0.01791951		-3.3216264812891576		-0.5616561915002464		1.6380875943905666
N		-0.68053177		0.56779406		-0.14776651		-0.6414732597165367		-0.7140820860634592		-0.6846525712395681
C		0.59100305		1.19043194		-0.12419637		-2.8450608961971504		-1.5977093454530207		0.029268358080189582
O		-2.26983588		-1.11168851		0.12803984		4.547019011597231		0.6312170265178242		-0.6625652013356504
O		0.54724876		2.37497886		-0.01161285		1.4017048470518934		3.301359760928155		0.08433686181692616
H		2.19254736		-1.88294194		0.22091298		0.1368738574195121		0.6112599183948015		-0.18506563732346173
H		0.02517771		-2.18571432		0.91646922		-0.5103229349574275		-2.065019730635925		1.0377815008936015
H		-1.48297646		1.18355765		-0.114835		-0.32184014731833077		0.586424399207654		-0.13144235065173235
H		2.6441793		0.64543495		-0.12488302		0.8486337231429704		0.3587866420745073		-0.33537870218494836
12
Lattice="50.0 0.0 0.0 0.0 50.0 0.0 0.0 0.0 50.0" Properties=species:S:1:pos:R:3:forces:R:3 Energy=-11266.657622250932
C		1.70779686		0.17261554		-0.01350423		0.2876632962674861		2.5077181797591908		-0.21667663030244275
C		1.30265595		-1.06466774		-0.14530418		-1.1618187660209283		-3.8172689830613202		1.0187774492759283
N		0.0048798		-1.51477976		0.04141488		-0.5063098029380588		-0.773069413757041		-0.7899193437568449
C		-1.14928078		-0.67090469		0.12096833		-0.02596176519881056		-0.9798243113769737		-0.19363862073011068
N		-0.71375373		0.67231186		0.14792286		1.1205050469233888		-0.5091781770032845		-0.290450063519612
C		0.65571524		1.21382075		-0.05030161		-0.24649191343879373		-4.716847880441839		0.9754788385680252
O		-2.27608446		-1.19545797		0.14236552		1.4660760132613686		1.6695607762421958		0.04390616237568673
O		0.79825326		2.36096948		-0.22330867		0.3124134034089131		4.467301496493834		-0.5621227952948693
H		2.0397597		-1.87712845		-0.17609221		0.04511864318606938		-0.22425639657297308		-0.2310409720698592
H		-0.22265675		-2.53665492		-0.12412329		0.24769138446737787		1.4489480441699263		0.2905549131049367
H		-1.30044261		1.48312435		0.02348312		-1.2710089904806703		0.11053141469242372		0.10169371050830964
H		2.80170706		0.29789926		-0.02113477		-0.267876600859405		0.8163851994338006		-0.1465625967370853
12
Lattice="50.0 0.0 0.0 0.0 50.0 0.0 0.0 0.0 50.0" Properties=species:S:1:pos:R:3:forces:R:3 Energy=-11266.742326523587
C		1.59840081		0.27809071		-0.10291225		2.7773814916002975		-2.2510951429996124		-0.3245116777285182
C		1.3584064		-1.07678879		0.05747624		0.6012739595562981		0.5747804902318099		0.8303102425217522
N		0.10856627		-1.60553023		0.20308179		-2.165518700945395		-0.7647410451014414		-1.028341130137636
C		-1.04869419		-0.77424457		0.07223346		0.9022236368961732		0.12740875265151072		0.2986509568824114
N		-0.65491486		0.53997133		0.13023941		-1.4125600444339612		2.4394724125665728		0.20049081623911155
C		0.54740182		1.23618016		-0.10920338		0.4233293008622355		0.9829581775506013		-0.13755026322890918
O		-2.21361889		-1.11562423		-0.01527878		0.25375168021473093		-0.6611282118006345		0.04566376847004523
O		0.63950208		2.46885161		-0.22945051		-0.5885890623483244		-1.3594656336744753		0.2046763150117947
H		2.17787284		-1.76415241		0.37489666		-0.14637269506047718		0.1452171898952832		-0.8223188426413525
H		-0.13453164		-2.55646		-0.14560529		0.6067565798541479		0.2527699301985375		0.6582632315915302
H		-1.4250073		1.20688787		0.25978401		-0.27060299861022097		-0.16765685234900915		-0.2382690628553305
H		2.7012183		0.45399		-0.25629933		-0.9810731475855048		0.681479881408795		0.31293574871922597
12
Lattice="50.0 0.0 0.0 0.0 50.0 0.0 0.0 0.0 50.0" Properties=species:S:1:pos:R:3:forces:R:3 Energy=-11266.979839038908
C		1.65764139		0.2392383		0.04692429		1.2440353419370735		3.8561648367827117		0.4876712593402422
C		1.38365593		-1.03314364		0.13181405		-1.4686449052349164		-1.7506337769116345		0.2754804840772219
N		0.10827732		-1.53009765		0.10258114		-0.07030403808609045		-0.2068618040877552		-0.10726431395500217
C		-1.06835378		-0.76889119		0.03665454		1.775541441252392		1.6773441224579444		0.6833137978438213
N		-0.72282337		0.59372987		0.1317477		0.15825201423819293		0.49612622911358073		-0.1960844082861661
C		0.57006884		1.23341737		-0.03109093		-0.8571442801658116		-1.69691319969776		-1.0340422942008758
O		-2.19562547		-1.17357458		-0.01569104		-1.201257636721735		-0.9197398425590729		-0.1756160105962562
O		0.60981842		2.3928731		-0.37445181		0.3972447912003695		0.9923176614023412		0.44282335331294403
H		2.15721004		-1.74005352		0.29615843		0.9781671325705698		-1.1930364316442699		0.02865396727810078
H		0.04232647		-2.51820097		0.22418971		-0.5887274905404254		-1.0844235741016566		-0.04208073058096371
H		-1.49709354		1.26777847		0.0480084		0.022157612441217004		-0.2774066002702116		-0.04744276614238071
H		2.70774093		0.57337635		0.17014179		-0.3893199828908355		0.10706237951578201		-0.31541233809068564
12
Lattice="50.0 0.0 0.0 0.0 50.0 0.0 0.0 0.0 50.0" Properties=species:S:1:pos:R:3:forces:R:3 Energy=-11266.071661665763
C		1.62780206		0.34228957		0.08723158		-0.6790809907736891		-1.1477602312588702		-0.5905730797836267
C		1.48452621		-1.02480144		-0.02546848		-3.6236313393503963		4.313223256798087		0.2857389284246195
N		0.20820444		-1.54972822		-0.1283785		-1.5538076567967665		1.4606822502874233		0.28889927696040596
C		-1.11749205		-0.77256736		0.03528147		5.589820642759054		1.1859009519932613		1.6368138699038124
N		-0.77520096		0.5991002		0.35408936		0.06017096072693294		-1.4919956637910372		-1.256629530626895
C		0.43624525		1.21131813		-0.00150992		2.9151169770981324		0.8011083217462411		-0.8736457228484282
O		-2.20410882		-1.2156342		0.14370287		-1.8723802405791137		-1.312855442145136		-0.4982097482397134
O		0.65557548		2.36620139		-0.41656563		-1.8935165080160548		-0.7026725074261756		0.8719763570132247
H		2.29516628		-1.62820696		-0.1063231		2.7503913365746566		-2.6137438390740257		-0.3619506929987898
H		0.22688228		-2.51113703		0.10551693		-0.9658773624904207		-1.7329008272555306		0.032390705711829386
H		-1.5891537		1.16828301		0.26752635		-1.1167335471754478		1.0462395559906867		0.032056153773564425
H		2.5586428		0.82289198		-0.21233419		0.3895277794451744		0.19477417413507614		0.43313348270999696
12
Lattice="50.0 0.0 0.0 0.0 50.0 0.0 0.0 0.0 50.0" Properties=species:S:1:pos:R:3:forces:R:3 Energy=-11266.450406234437
C		1.69595282		0.19150469		-0.09275623		-1.7821633687657654		-2.692477341590482		-0.16575156209130956
C		1.33376943		-1.1544035		-0.19535953		-1.2061664896468274		1.7342567756201341		-0.4999769188376867
N		0.02321157		-1.57043042		-0.24069958		-0.5991423608017796		1.540114578632503		1.514138363834145
C		-1.10800108		-0.63364036		0.14887825		2.182588974482774		-1.8029652899526916		-0.587925923431038
N		-0.74043706		0.64929821		0.30746969		1.6774334425804107		0.7828376515831535		-0.47234969588041836
C		0.64510385		1.14557178		-0.01288635		-2.130889541433287		5.185281991955347		0.03379715054175331
O		-2.19941674		-1.09683988		0.27757783		-1.99999293313028		-0.7103953298744269		0.2583644449042668
O		0.7143547		2.41100811		-0.18798976		0.25285991880781566		-3.527353811835258		0.49939158150087914
H		2.05252324		-1.85725311		-0.55267393		0.9565554681663277		-1.0921935505811697		0.03292240983750718
H		-0.20531063		-2.51849951		0.07397738		-0.049760718451198685		-0.1517810104780944		-0.38884921390915467
H		-1.55373426		1.3090044		0.41973968		1.2343726736051597		-0.296667967888358		-0.15245371389899542
H		2.66066082		0.38088359		-0.48015333		1.4643048831645873		1.0313433044093427		-0.07130692256994867
12
Lattice="50.0 0.0 0.0 0.0 50.0 0.0 0.0 0.0 50.0" Properties=species:S:1:pos:R:3:forces:R:3 Energy=-11266.569554467967
C		1.54724281		0.24580139		0.01570524		1.381528732364919		1.775093555088499		0.5806611687150437
C		1.37000047		-1.0846161		0.09687559		2.2646978211780984		-1.0743093686394163		-1.0201549949067585
N		0.14857456		-1.53971102		-0.11101834		-2.3213301212558393		-0.4755152380445118		-0.16098885066768512
C		-1.02658274		-0.74182011		0.00505013		3.377642025149937		2.2160038534123143		-0.5105110882839126
N		-0.85128022		0.67231738		-0.21215891		1.6967181043928448		-2.7521197349375464		0.10535568126324371