20
Lattice="50.0 0.0 0.0 0.0 50.0 0.0 0.0 0.0 50.0" Properties=species:S:1:pos:R:3:forces:R:3 Energy=-13999.208717221707
C		0.89138898		-0.20164658		-0.02343195		-1.163482269741013		-3.4160687553956444		0.14655745453084085
C		2.31112998		0.12111992		-0.36948347		-1.813890061385247		3.69900117049616		-0.7605326635109702
O		2.5639399		1.34419831		-0.59272911		0.9024936541460702		-2.5590083960357433		0.44639065605091743
N		3.10019283		-0.97377839		-0.34547844		2.125970198407456		-0.5991185009648053		0.8867814886999169
C		4.52275941		-0.97274711		-0.04905215		-1.1982182328768183		-1.5921189959343494		-1.6168478143419238
C		5.21069822		-2.19342796		0.07289111		-3.1327457383088007		-2.1555876608695823		0.4647008183579625
C		6.54910059		-2.35840294		0.100383		1.642043802186809		-3.710470398725879		-0.1133277978702268
C		7.38673017		-1.28113199		0.04509022		0.6419170835374965		1.9399538699935175		-0.06702691004649224
O		8.72733993		-1.47170181		0.01605293		1.086101835953663		1.1484116973679817		-0.4990502418503715
C		6.76082592		-0.02296525		-0.00338236		-2.0462464098124404		-0.9343866971375601		-0.6353384534007013
C		5.34150846		0.10290895		-0.22482129		1.4679078728138972		2.5303307231868555		0.5697804145679408
H		0.79761736		-0.29299341		1.06612708		0.11444411942383795		0.2090725413963761		0.6055407566097064
H		0.57437346		-1.28532499		-0.33515212		0.5493849847846398		1.2069723247873974		0.17934498429855567
H		0.04058826		0.38517647		-0.33626527		-0.05634685620911085		1.1420088278406222		-0.6196875830529818
H		2.59917626		-1.86991321		-0.21194709		0.45332445837301794		0.47854662004768694		0.02661883631272844
H		4.64041333		-3.1702067		0.13561628		0.06218104914789473		0.8601397695694004		-0.12893547368549269
H		6.97654665		-3.45399358		0.06028		-0.5864015678119285		1.958862327997106		0.242022102082854
H		9.17026686		-0.64133866		-0.35512376		-0.746223394772432		-1.195391973480735		0.7147974697961893
H		7.28999692		0.87892331		0.10347185		1.2617989391423945		1.580383967063853		-0.16781898611189716
H		4.87609975		1.09881749		-0.46722557		0.4359865330006141		-0.5915324097805944		0.3260308911413833
20
Lattice="50.0 0.0 0.0 0.0 50.0 0.0 0.0 0.0 50.0" Properties=species:S:1:pos:R:3:forces:R:3 Energy=-13999.274493123341
C		0.85126043		-0.34577371		0.51230039		-1.1031522091528763		0.07803225985089852		0.5446892248863183
C		2.15551512		-0.015815		-0.3098245		0.22595831257370402		0.46163590917007336		0.28547898989896175
O		2.25902436		0.75784107		-1.27308742		-0.12126597591599642		-1.1136185528987377		1.3171942300859667
N		3.21951478		-0.68249315		0.34344046		0.2242716689255191		-0.21104288056306814		-0.5417144585738947
C		4.60963262		-0.83584607		0.09804253		-1.0107020257454937		-0.0043754518713537425		1.2598922090669462
C		5.33901021		-0.00569097		-0.68383628		0.10494949839199333		2.2164967853029087		-2.4627908780674774
C		6.6876192		-0.21206143		-0.92649323		2.133209447780478		1.4307061703618078		-1.4289272241115347
C		7.38342242		-1.16441757		-0.21257751		3.1621815266243107		-2.3498439634137784		0.4594522198662984
O		8.8231531		-1.41710919		-0.3030552		-3.441273844945582		-1.2180221546758183		0.6551495742884436
C		6.6738611		-2.10671505		0.6021332		0.3136827055982971		2.849700708891532		-1.4231126744006044
C		5.35144927		-1.80987224		0.79466572		-1.8434911202094535		-1.8036282746037904		0.5559453086672049
H		1.02710836		-0.19166219		1.68441303		-0.3211286716623464		-0.38450147852945865		-2.1865567008210047
H		0.48063032		-1.4182861		0.3019971		0.7088688145286947		0.9195959636283527		0.42331711383343607
H		-0.07621689		0.26647458		0.20493558		1.3758657748940757		-0.2874163675236268		0.23665317596506943
H		2.91079001		-1.43099953		0.95007269		-0.40053801434551295		-0.14769084820918363		0.4671197635974217
H		4.88516806		0.83695507		-1.23705555		-0.2975007481896492		-0.2968302044953709		0.11342853369055587
H		7.27224477		0.40631869		-1.73876685		-1.0789909874705657		-0.7952627131095945		1.5312016953930945
H		9.27578178		-0.63832489		-0.57233755		0.6073651085411181		1.702031237572877		-0.7099042491780804
H		7.12291055		-2.95212025		1.04174279		0.9506882622634542		-1.163786894038935		0.8312904498760725
H		4.8026493		-2.5313093		1.42897679		-0.18899767675035517		0.1178207491542666		0.07219369603680686
20
Lattice="50.0 0.0 0.0 0.0 50.0 0.0 0.0 0.0 50.0" Properties=species:S:1:pos:R:3:forces:R:3 Energy=-13999.279659076596
C		0.91727844		0.44702087		-0.01261851		4.268465236535941		-0.1634011110390266		-0.8444628282360217
C		2.24802764		-0.38547105		-0.45865239		-0.4934839578569242		1.3599016927640062		-1.3189965733746523
O		2.33733956		-1.09957881		-1.46292198		-0.8941357178045648		-0.007730330069368302		0.9037672243666369
N		3.35206166		0.08027073		0.20963626		0.19997063065542134		0.0660158494547053		0.43127339244518625
C		4.71247517		-0.32008656		0.11430645		-2.8202678516335817		-1.0728029593200998		-2.6787027594572432
C		5.52383912		-0.2171437		1.17490446		-0.02366247909866		2.7445732387414177		2.9378817298306337
C		6.85944414		-0.49742649		1.11935857		0.43216571949478855		-1.5407913958183996		-1.0340626573376037
C		7.27328445		-1.28690146		0.02336993		2.7890150647415903		0.30689946707503457		1.9804847910344616
O		8.56469757		-1.81000735		-0.06543579		-0.27643801430200393		0.7179781300466413		0.9126701831479935
C		6.42194067		-1.57608802		-0.98395672		-1.4840154739202502		0.09414541453999543		-1.0829390705809416
C		5.14726239		-1.01508802		-1.01942933		-0.8917214519727878		-0.3781115159397728		-1.5511420399237603
H		1.00486822		1.41262976		-0.52228567		-0.2433887976585082		0.22571045823272073		-0.5884580389332154
H		1.00921016		0.70167707		1.02017798		-0.4427870493368581		-0.11201622674551327		1.5197011511273462
H		0.11520375		-0.12302281		-0.32302432		-2.5310496550418944		-1.2806017762297217		-0.5497387685742592
H		3.11347707		0.7499274		0.92801391		0.23073902171918412		0.25458764868389383		0.554210225436197
H		5.05140461		0.39175052		1.98002299		0.5997292922225229		-0.4103104687807461		0.3738556717856653
H		7.52193968		-0.37897928		1.94020301		0.8312070947128496		0.4408498259783804		1.2013986360169582
H		9.07791008		-1.47434819		0.72210003		-0.5337109745088204		-0.400710792475327		-0.8025934937537679
H		6.79077733		-2.29208443		-1.67603562		0.2741505552762157		-0.6742259767479765		-1.4266460899994273
H		4.41675434		-1.12207925		-1.89182051		1.009218910620465		-0.1699592237729064		1.0624993149798134
20
Lattice="50.0 0.0 0.0 0.0 50.0 0.0 0.0 0.0 50.0" Properties=species:S:1:pos:R:3:forces:R:3 Energy=-13998.931004959699
C		0.89583122		-0.09741131		-0.25337113		-3.2081660659198854		-0.7889889129589712		0.1216841401277964
C		2.2583093		-0.08006355		0.22580868		2.6964517013747673		-1.1881904679015476		-3.3245781076734806
O		2.67834199		0.47907144		1.18471282		0.6283080290232672		1.1143696235428042		2.6884318650938357
N		3.18336354		-0.73510981		-0.7279672		-1.136114265400528		1.2079530977844044		3.971461379735694
C		4.55547754		-0.92766196		-0.38167978		-1.5510300426717556		0.09886318308104329		-1.1872047583865457
C		5.12572594		-2.2192522		-0.24628492		-0.5894864801821086		1.9609770088930805		-0.514693038934287
C		6.48106241		-2.27916906		-0.32793204		3.432761076774056		-1.8952413068345735		1.0444844181553254
C		7.34416649		-1.17425994		-0.23041018		-0.8861387643414209		2.068326992004115		-0.7162412984655105
O		8.72942379		-1.21464262		-0.26178139		-0.7538740720670736		-1.0842530071205276		-0.05581906016017885
C		6.73007772		0.12296026		-0.21862469		-0.001411175659668826		-1.6254632723721523		0.3777910536466177
C		5.32993076		0.23294254		-0.35741332		2.1750094139004936		-0.11920225428390485		0.25989240006774744
H		0.26552317		0.80875809		-0.06640735		0.7089901705960641		0.07842023931204349		-0.48902746481515774
H		0.27004116		-0.82661112		0.30848649		0.32847714149600066		-0.19391223752437875		0.6193256231554338
H		0.75855153		-0.5747931		-1.22951101		0.07460312819471387		0.5543494249592348		-0.7969008143308316
H		2.71933084		-1.01002523		-1.54718157		-0.21853430373031857		-1.093727470703894		-1.7984558836086695
H		4.59594078		-3.13503464		-0.10278872		-1.0192338715021871		-0.7518730339291021		-0.17313412475236467
H		6.99644907		-3.27743018		-0.23767598		-0.3613772855804693		0.5247581877489551		-0.2329772698312129
H		8.97143923		-0.80380067		0.57415717		0.568311646198334		0.3656211998160896		0.4208861872534272
H		7.3995402		0.96830247		-0.06142906		0.046258310356030403		0.5574803600753029		-0.26448613859417874
H		5.00491511		1.25495811		-0.5215648		-0.933804290858312		0.20973259498991573		0.04956099516066363
20
Lattice="50.0 0.0 0.0 0.0 50.0 0.0 0.0 0.0 50.0" Properties=species:S:1:pos:R:3:forces:R:3 Energy=-13999.115818922828
C		0.86976226		0.22615673		-0.40638681		-0.42314721533911903		-2.030449500807378		2.2608551532957337
C		2.17367829		-0.54447555		0.02361368		0.15186318293388093		0.864913485314388		-0.20514749536997512
O		2.20284281		-1.40411342		0.89030721		-0.16851539510358524		-0.07219770695767753		-0.1139458396387492
N		3.30774717		-0.10471586		-0.70596627		-0.9534409366881793		-1.4616321700469634		1.9619268258084956
C		4.66261196		-0.36517612		-0.40488798		0.9772857584202682		-0.2462666333832237		-0.48242816300925984
C		5.64623043		0.08079948		-1.29989877		-0.7882240612021694		1.0711992594586381		-2.270319229622486
C		7.01768063		-0.1657556		-1.08537707		-0.6801303608019974		0.8093347204520132		-2.669317770262531
C		7.32921499		-1.05021612		-0.09591086		2.444418855019312		-1.6030132226618126		2.000969335251979
O		8.65325138		-1.42421548		0.04813526		0.16475073448994915		-0.4813615665900326		-0.04864804786402112
C		6.40622899		-1.61890432		0.8317679		2.6350671285520786		1.9838381779926653		-1.6547937997258375
C		5.14722115		-1.18521134		0.65636089		-3.321180600585699		-0.35418241344733725		-0.38101855939595686
H		1.06493217		0.83834531		-1.23993745		0.05622956248467458		0.9698283766583562		-1.8811178260076482
H		0.4616305		0.92459314		0.40458789		0.470156236384779		-0.9450531241283937		-0.4800818771440348
H		0.10696943		-0.61190601		-0.60956497		0.6096898485621787		1.2127684653999724		0.07602196574168696
H		3.06008692		0.72923432		-1.1803714		0.36045575079939857		1.2193718295488034		-1.0659161053410113
H		5.2877013		0.50560502		-2.35806032		0.7768820511549378		-0.38450399821051834		2.183069565078382
H		7.72767484		0.15287579		-1.92391538		-0.4701082596005181		-0.4358490818276995		1.3105269997355793
H		8.68657251		-2.29508068		0.52546616		-0.11243850472230883		0.8618493474574356		-0.31841970599069924
H		6.88317108		-2.06253452		1.70013765		-0.45903935212693026		-0.8302572263753719		0.4371006434055401
H		4.39147533		-1.75650043		1.13630837		-1.270574525475075		-0.14833696642380076		1.3406839824768753
20
Lattice="50.0 0.0 0.0 0.0 50.0 0.0 0.0 0.0 50.0" Properties=species:S:1:pos:R:3:forces:R:3 Energy=-13999.403618160075
C		0.80121463		-0.06841945		-0.34803281		1.212814025347298		-0.009297468844431785		1.116967517559571
C		2.29116421		0.13290925		-0.2529115		1.622854425456085		-0.28049434085382613		-0.831672927176536
O		2.78746769		1.09080034		0.29106283		-0.020666166942072062		1.8623432196326029		1.0628808666831526
N		3.1707318		-0.82277155		-0.78003928		0.12936880740571385		-0.9943791718857476		0.3968457045737366
C		4.57431335		-0.9853875		-0.37603931		-2.308469154906055		0.08732237534040074		-0.24155338998367096
C		5.39007061		0.15463133		-0.32124154		1.0582502071158861		-1.2803311419150756		0.09300425613022352
C		6.77999946		-0.0319132		-0.09026478		-2.705296861757936		1.7043818943134093		-0.009265690009840984
C		7.28731215		-1.30682226		0.06704248		2.2666860552225208		0.43314566973879637		0.5310052998491697
O		8.66149645		-1.41892789		0.16439872		0.1165466132910128		-0.8711524213066738		0.13296176975284718
C		6.46331886		-2.43594563		0.18580424		-0.15627195630169882		0.7049617148020868		-0.8502388628221804
C		5.06549588		-2.2565179		-0.03096691		2.140930007657982		-0.7101774031737864		-0.28048657612239697
H		0.72148142		-0.71829293		0.55019515		-0.8940455235070368		0.019736558897197484		0.061527063357723524
H		0.56211676		-0.67727721		-1.21806986		-0.7428755613969723		0.11737507413905873		-0.5729738274898791
H		0.36229022		0.9490351		-0.14855973		-0.193393491758437		-0.8994104387039508		-0.5087879863934545
H		2.724685		-1.68981062		-1.07085274		0.04089015556918248		-0.31106321431530365		-0.15702883763882178
H		4.90703946		1.10850707		-0.46942347		0.028486896997218073		0.637801261659426		-0.03907850488719464
H		7.28980098		0.93026004		0.07011821		0.7950390271379604		-0.3364012813187229		-0.21113533743134366
H		9.148258		-0.57960903		-0.00027414		-0.7888833434647724		-0.24626293099472765		0.04436464148444332
H		6.95020297		-3.42840557		0.20458662		-0.2737635014121947		0.11949335457940409		0.3261322440264617
H		4.64406145		-3.26431739		-0.08496592		-1.328200608331622		0.25240879305398867		-0.06346742346201036
20
Lattice="50.0 0.0 0.0 0.0 50.0 0.0 0.0 0.0 50.0" Properties=species:S:1:pos:R:3:forces:R:3 Energy=-13999.048364272163
C		0.80582826		-0.15411357		-0.43494868		1.5078516567458482		2.275659976450051		-3.118322055481323
C		2.21907251		-0.1990488		0.07995406		1.7082733103109717		-0.9508635086522658		2.675959598114071
O		2.48627772		-0.33166331		1.3060611		-0.8932570690235729		0.668711834725848		-2.068004472828463
N		3.24022381		-0.43072033		-0.88172691		-0.6077255771988551		0.3748066199864545		1.4507046732450986
C		4.61617325		-0.64746165		-0.53799763		-2.3550502415480508		1.1001287975693799		-1.7468256646552325
C		5.56256691		-0.32971148		-1.50177633		1.3781274200445168		-0.20513695384717398		-0.4271787050347804
C		6.93744257		-0.54121116		-1.23924801		-0.3588001660769302		0.19696022885372358		-4.224541333548711
C		7.3289788		-1.11994948		-0.05621137		3.10268162381228		0.02402449041827041		0.3336124057620367
O		8.73711411		-1.36829005		0.10544937		-1.5738677118888034		-0.5972123879541067		0.04010180392984339
C		6.39747038		-1.33990202		0.93607069		-1.814659335439419		0.2744408842407782		-2.2561665924861547
C		5.00432377		-1.15470436		0.65344259		2.9110083543088043		-0.7466489637612241		2.59928570346471
H		0.51889783		-1.16357788		-0.34175577		-1.0084881002690016		-1.9037037328069664		-0.281511057872482
H		0.90872841		0.20934789		-1.54613543		-0.595373123624586		-0.9969242554443839		1.270936331106436
H		0.03125846		0.49752471		-0.03400023		0.11853757270474517		0.40388857309028214		0.961848289631694
H		3.05601234		-0.1449753		-1.83493971		-0.04860212796225804		0.04226369027914181		-0.42098790009294274
H		5.2345412		-0.05674326		-2.51694119		0.08395021932940477		0.25475327914702806		0.03075538128196429
H		7.59333172		-0.50545796		-2.23135668		-0.682425018916528		0.1566382870745546		2.3375533191585682
H		8.85072965		-2.28562313		0.47334173		-0.24725439978072314		0.872816182137071		-0.14609959248683357
H		6.75615433		-1.87802365		1.74635527		0.4368555144338665		-0.971152031967744		2.534907081056181
H		4.36595474		-1.34128842		1.48643075		-1.0617826971175846		-0.2734510609607809		0.45397289058044515
20
Lattice="50.0 0.0 0.0 0.0 50.0 0.0 0.0 0.0 50.0" Properties=species:S:1:pos:R:3:forces:R:3 Energy=-13998.983187752165
C		0.80168707		-0.22138788		-0.32286905		1.3630155557553425		-0.25818955846989244		0.5186600453636427
C		2.23697734		-0.18119937		0.09100758		3.173869555729732		2.9051813090367005		2.836039718094234
O		2.6676715		0.47541598		1.10177233		-1.93839948388994		-1.4769787760511979		-1.4017985380496678
N		3.21537473		-0.68462806		-0.74959024		-1.9687377808234159		-0.40730094115410986		0.18048665692895208
C		4.57613245		-0.83443434		-0.48458293		-0.11602385660420038		2.4938066092515996		1.1085955429950183
C		5.24162788		-1.86520278		-1.1107401		-0.7574479054069775		-1.6225611654339633		-1.58270063382111
C		6.58401438		-2.06467327		-1.07900919		3.6277548745378336		1.6143704022174654		2.996858361735227
C		7.33976626		-1.16110947		-0.10355949		1.1614243588019775		-2.76670277473654		-2.329531271728951
O		8.68165442		-1.39311584		0.26248872		-0.4508531140519275		1.3751066309862054		-0.5873980245379812
C		6.69913211		-0.09220299		0.40379564		-2.6729470365857506		2.6998019001650992		1.8658047986101898
C		5.26954468		0.13291776		0.29936591		0.6565802903318414		-0.7282001161517659		0.2109685756828356
H		0.67633667		0.61266691		-0.99264554		-0.38972642287239817		0.17601756548188657		-1.5275202870985563
H		0.1803267		0.0709672		0.49363844		-0.5785784723419101		0.06834449755251178		1.3851120787863753
H		0.62284051		-1.2531247		-0.58248556		-0.8708792158889054		-0.578857282764485		-1.0769798706083549
H		2.86442365		-1.01038754		-1.63380726		0.000586828576618469		-0.6620710867376198		-0.7108150881701626
H		4.61891661		-2.57965782		-1.68494212		0.10416916859439558		0.12830231383061158		-0.12046754555241816
H		7.18061062		-2.8479203		-1.57435967		-0.40376397743297876		-0.08584697352473852		0.0014673285518583955
H		9.08743021		-0.49750685		0.56176231		-1.0197874300044039		-1.7773941267402102		-0.5253763837836649
H		7.25254256		0.61596528		1.06449838		-0.06693923543002409		-0.2744618644422557		-0.16193959318022444
H		4.64386707		0.8786259		0.91637551		1.146683247583029		-0.822366562315301		-1.0794659216393043
20
Lattice="50.0 0.0 0.0 0.0 50.0 0.0 0.0 0.0 50.0" Properties=species:S:1:pos:R:3:forces:R:3 Energy=-13999.00676248084
C		0.9301162		0.24197248		-0.18919696		-2.184822440342996		-1.1199827530351385		1.7275969500467383
C		2.29858088		-0.2107589		-0.50516321		1.4681835464906632		0.47346066953953536		-1.9174944100457505
O		2.5738701		-0.41133039		-1.70616231		0.23744718403127743		-0.30214066372815584		1.456289160648651
N		3.24408208		-0.32876351		0.55560758		-0.3344003974469387		-1.0423953454464487		-2.9373146473259943
C		4.58994008		-0.70223848		0.39586316		0.9317777473773678		1.7456682568737278		-0.7896953492528359
C		5.63855061		0.10664083		0.99664551		-0.6460347566098152		-1.3744215862703175		-0.7801707491585862
C		7.00336831		-0.09937056		0.72431294		-1.4489496896759246		0.8676583950076842		1.6673032448567502
C		7.24993299		-1.189399		-0.08334259		3.7577363758175757		-1.5795107175994179		0.5278272107018399
O		8.56127014		-1.68511767		-0.1226544		0.266000055534612		1.2913940330073572		0.4606580672306257
C		6.31828492		-1.95024537		-0.72525609		-3.189635817185577		0.33621806451023256		-1.6599788919703828
C		4.92761351		-1.55445388		-0.63829958		2.9192965623336344		-0.959831362076427		0.5734198110374616
H		0.28185246		-0.72277022		0.0184095		0.7214861945686786		1.4180015270818553		-0.8171372985191162
H		0.39350807		0.97406306		-0.87193308		0.8067388318956819		-0.93802712204833		0.15442215044937704
H		0.91466565		0.66362534		0.81673848		-0.09281707982292495		0.6103088673498875		0.6550388625880003
H		3.10894523		0.07408946		1.42066259		-1.239725967415961		1.3686932713581073		2.560737874261944
H		5.24261311		0.87778302		1.60947369		-0.03739988308075113		1.2701224227020618		1.0976637781619702
H		7.82729297		0.41409338		1.31430343		-0.7994952116473523		-0.2837287885815953		-0.7439994419937629
H		9.11040532		-1.05575969		0.44246726		-0.681158287830266		-0.9523748030675143		-0.873796955134078
H		6.58470652		-2.71606698		-1.46940728		0.29960483614075983		0.014665983585716816		0.20016006953346743
H		4.19157346		-1.82923203		-1.35964593		-0.7538318545538065		-0.8437784005848833		-0.5615294361163203
20
Lattice="50.0 0.0 0.0 0.0 50.0 0.0 0.0 0.0 50.0" Properties=species:S:1:pos:R:3:forces:R:3 Energy=-13999.298123488954
C		0.73288577		-0.25082564		-0.29441468		2.4731673874702484		-0.4895138146817593		-0.286146396847431
C		2.32320665		-0.02414089		0.04611033		-4.106680269497487		-0.5811593456560077		-0.574489544202498
O		2.7236036		0.95766578		0.59091548		0.7502651688805824		2.5327966167693265		1.4624710181516232
N		3.10374297		-0.9998363		-0.38713794		2.2513686055276927		-2.1341369475207923		-1.0808159564667263
C		4.54034964		-0.99159686		-0.33288632		-0.4484978293257748		-0.5047767569903963		0.17676174556958568
C		5.24573221		-1.70838722		-1.28983967		3.580109505469421		-0.4330705421055647		-0.9849380297988455
C		6.71776021		-1.82767402		-1.20998571		-1.3662246524063262		0.23963020484824066		0.5304764239369264
C		7.34724686		-1.14350778		-0.10443392		0.03324451763666054		-0.6391247112805641		-1.645465374799814
O		8.67372451		-1.12338608		-0.10331403		2.656309788236217		-0.5015997991284402		-0.33969995520248547
C		6.63634083		-0.43823125		0.84351164		-2.4195906891870935		-1.6550964185633243		-2.6350236769093125
C		5.26195084		-0.40103419		0.71244048		-1.2639155740767414		0.6168962392372984		1.172876103530466
H		0.75749271		-0.98673599		-1.15761624		-0.7029747148871627		0.5760682015195491		0.5828567365152433
H		0.41874893		0.75986877		-0.60341705		-0.39892192176700214		-0.09302713894801139		-0.06254989960181027
H		0.15905872		-0.6302228		0.58315176		0.16709989999067104		0.12770252689425707		-0.2696906683783277
H		2.72461683		-1.81926275		-0.87815168		-0.11190813757025461		0.3846314220812562		0.1509612399586016
H		4.82472696		-2.063629		-2.23741466		-0.5081013990156933		-0.3233584351340718		0.08650584441084196
H		7.37508896		-2.4225936		-1.95822642		-1.143463609409244		1.0143412679488273		1.0337086678597345
H		9.18128372		-0.64121775		0.59643576		-1.188744129247889		-0.2289864549869452		-0.2532901157822277
H		7.1424821		0.06848613		1.55866395		1.6828717884824955		1.872950562673687		2.8778209151614567
H		4.65877352		0.10420521		1.4750708		0.06458641896286862		0.21883342586755916		0.057670974317060864
20
Lattice="50.0 0.0 0.0 0.0 50.0 0.0 0.0 0.0 50.0" Properties=species:S:1:pos:R:3:forces:R:3 Energy=-13998.994280037876
C		0.96240479		0.04619225		0.08066578		0.8813714763542387		0.05254907978726043		2.844360013486029
C		2.30686184		-0.35781547		-0.45189709		-0.9305424351712599		-0.6830257314500063		1.1365801492862768
O		2.4977998		-0.75026061		-1.59296373		0.276710242700586		0.4131373452415788		-0.046610345795526545
N		3.22938126		-0.38492577		0.62024642		-0.565971839512977		-0.24067258147605633		-3.370930109027285
C		4.55403527		-0.63719754		0.35959017		2.555701546044052		0.21449011278523333		1.7944067561455896
C		5.57154712		-0.06430677		1.17358032		1.1148624525892736		-2.4564719807680904		-2.2320310304130033
C		6.97120818		-0.33173235		0.98063635		-1.9653182136708458		1.784417403450965		0.7080359313832786
C		7.33378756		-1.11572694		-0.09739629		1.1805608736525084		0.1389926520804819		-2.75560332255786
O		8.62785201		-0.94325676		-0.66592816		-0.8595597801270871		-0.634363542518813		1.448810387308762
C		6.36330569		-1.75258726		-0.92252245		-2.0122001193781425		0.32656989719992824		0.9531688111337223
C		4.96411606		-1.48684835		-0.63510789		2.9574194910344205		-1.1511810325409388		-1.3978314287761868
H		1.03597423		1.01855851		0.60310843		0.09265196358041516		0.11596533829713834		0.2161070281167432
H		0.57201251		-0.68046634		0.84713908		0.5069430656370648		0.159192780870618		-0.13763222999644595
H		0.15209086		0.15045213		-0.54336215		-1.9430453643876906		0.16807301110037381		-2.6837417616223833
H		2.91250237		-0.14572185		1.52000225		-0.42750184127518265		0.6381541712739836		1.5730585857362365
H		5.13360749		0.50378631		1.90234099		-0.44613164312238374		2.2725555751182047		2.742596831771358
H		7.67866952		0.36384733		1.48360351		0.05002219963872979		-0.6613366254197227		-0.060076961196784094
H		8.86487619		-1.83469549		-0.97005281		0.2885917730269869		-0.10652481327498552		-0.3278299434180722
H		6.60818402		-2.41130694		-1.80096601		0.04564160556113159		0.6069455045115696		0.6048024386371259
H		4.20794676		-1.82272102		-1.29311479		-0.8002055045959001		-0.9574665128466596		-1.009639748779512
20
Lattice="50.0 0.0 0.0 0.0 50.0 0.0 0.0 0.0 50.0" Properties=species:S:1:pos:R:3:forces:R:3 Energy=-13999.190771838868
C		0.79723089		-0.2732341		-0.06398296		-1.5821057834027503		1.728482129429661		0.5322556272975116
C		2.23659777		0.1195806		-0.1824426		1.1784619793297046		-1.7821826006171197		1.115224669597134
O		2.55122599		1.27538609		0.07552565		0.6452065528720815		-0.21981754129862505		-0.5361586132591237
N		3.11165731		-0.97854833		-0.41887025		1.5642717893939428		1.0671659185687288		0.37405482943351354
C		4.58349629		-1.03732876		-0.31576994		-2.1339274026163304		1.0971259548108614		0.46119167397261396
C		5.24803456		-2.09214676		-0.90113215		2.554776720250985		-0.5655012247974835		0.2721470488792468
C		6.65997218		-2.23180867		-0.74417425		-0.1314722268700127		2.1833536205513266		-0.5017283542845518
C		7.36926874		-1.19236583		-0.04846633		1.43005352154526		-0.7086587554036082		0.7737610404969217
O		8.73961755		-1.42468473		0.09324253		-0.3705176086020703		1.0438694102884876		0.2205800276405545
C		6.70791026		-0.07769066		0.56650085		-0.5674108345084284		-3.858124480160415		-2.525414002686209
C		5.34788076		-0.07177569		0.38370071		-2.4109602673366943		2.6871281615446763		1.2445345473192864
H		0.36500291		0.43883251		-0.81289769		-0.5179358170361723		-0.6438871141718139		-0.05359217632395037
H		0.41811141		0.22949351		0.89975481		0.4807133914929176		-0.7634880437058522		-0.7969447287721595
H		0.37362616		-1.2990412		-0.1234179		0.4775529401130063		0.09012559765250897		-0.2766718304199398
H		2.73740124		-1.92268088		-0.51095205		-0.4848140438625671		0.1870226581759806		-0.10064212933131633
H		4.85492693		-2.89837622		-1.48087078		-1.2186592740295077		-0.5558173191537801		-0.7053980310019298
H		7.22808519		-2.81046666		-1.51084654		-0.13282601550799328		-0.3399575797353332		0.9059154324473252
H		9.15544132		-0.69842851		0.64055941		-0.6349718140954709		-0.6998587950133285		-0.6471088606501593
H		7.10226068		0.74973443		1.03863454		1.6871561718812602		1.8699161981908905		1.3501182340074096
H		4.86084377		0.87381367		0.88284441		0.1674080724109019		-1.8168962465778242		-1.1061244557842402
20
Lattice="50.0 0.0 0.0 0.0 50.0 0.0 0.0 0.0 50.0" Properties=species:S:1:pos:R:3:forces:R:3 Energy=-13999.374624752612
C		0.85491131		-0.02044483		-0.41553967		-0.6974907576156893		-0.10827511743647689		2.1953105870433336
C		2.29715053		0.0015108		0.06757281		0.5315621493633829		0.8766788532017266		1.375945221980553
O		2.54813606		0.47716819		1.20440638		0.060197083134654814		-1.0365895889081969		-2.124858504839465
N		3.22502867		-0.64343652		-0.78552702		-2.98455748448959		0.5015218432817741		0.5724040196159298
C		4.49604726		-1.02616472		-0.46996374		2.3326827242479347		-0.286856792640104		-1.2942623556505204
C		5.42353441		-1.20177926		-1.54897876		0.8917262342245952		-0.672890237253914		-0.15139678482750787
C		6.82843156		-1.36551905		-1.40160397		-0.9119084167149383		1.3839586305036788		0.20571504067317684
C		7.38932052		-1.13491194		-0.12005457		-0.24397022691857004		0.033268223207447524		0.8753468675182223
O		8.74503489		-0.95418354		0.01630514		-0.34355871819039524		-0.11397052222872263		0.5373611181893921
C		6.4903281		-1.03625129		0.99130142		-1.7027827710155052		-1.2324737082611412		-2.4702139613137395
C		5.05246872		-1.11530981		0.80225925		0.9421797107010484		2.1986247903899545		3.040120617044982
H		0.2320643		0.81802231		0.05035755		0.8894524020453549		-0.6896544466756227		-0.3754218849636049
H		0.49628626		-0.96764036		0.10082829		-0.19028765060884195		0.5397362004095861		-0.5802582768557898
H		0.62333261		-0.06890369		-1.46242722		0.058054017260211144		-0.1903371186329137		-1.2537507693050556
H		2.81092502		-0.95811829		-1.67790503		0.41817526754340717		0.11956359711670349		0.31048106514636764
H		5.13482212		-1.2255552		-2.61261707		-0.6102189301626718		0.15404378691390921		0.10736839220939016
H		7.41844391		-1.26707096		-2.33762616		0.12860601253140974		-0.46195308045123207		0.46178688434541093
H		8.91907488		-0.75015443		0.97086577		-0.10605126750193264		-0.18556581972486094		-0.7079462513063749
H		6.77802074		-1.10444773		2.00990819		0.9294732676489104		0.2835693287659544		1.3708123745514518
H		4.47880659		-0.76644899		1.78339693		0.6087173545172253		-1.1123988215775502		-2.094543399256152
20
Lattice="50.0 0.0 0.0 0.0 50.0 0.0 0.0 0.0 50.0" Properties=species:S:1:pos:R:3:forces:R:3 Energy=-13998.862729114104
C		1.04053126		0.66612366		-0.15150707		-0.6533588523858707		-1.923900776273356		1.6093821536279584
C		2.2153644		-0.40787457		-0.37839242		-5.325713330498906		0.04541462857750085		-0.5842334079710119
O		2.00824358		-1.47438929		-0.94782197		0.7399835846050847		0.08102697792355068		-0.05472377023010758
N		3.29455843		0.05831377		0.1713511		5.436100197773797		-2.8027050061600454		-1.0680621536950767
C		4.6801025		-0.40121715		-0.07829658		-1.225796244920327		1.5813252479169027		3.942939824268388
C		5.55894942		0.02142592		0.96340112		-2.1132905462498517		0.7878407097266443		-1.0788363613287943
C		6.87135639		-0.25350427		0.89209022		2.2972397591755778		-0.2628554935719961		-0.11642962809895119
C		7.34654105		-1.25168428		-0.01069135		2.161555859703097		-0.19008561332549684		0.2966361890537671
O		8.66245692		-1.76730324		0.11826472		-1.0814583722928477		1.8135148345955883		1.2104905708777987
C		6.51480236		-1.7019893		-1.03068425		-0.4469832438985297		1.4064281177536229		1.8391596342014898
C		5.20789755		-1.191958		-1.02219966		-0.7303713098943667		-2.2482652840591575		-2.4560336076857494
H		0.93792389		1.03986778		0.92849191		0.6265564393102148		-0.10143711441671077		-1.0404312283493125
H		0.01728525		0.23407901		-0.32976437		0.7092510861409081		-0.026360594715131348		-0.36119036638348295
H		1.24232842		1.44574682		-0.85114661		-2.3139928100097355e-05		1.376427715192471		-0.761330219699487
H		3.38515357		0.97740335		0.43215809		-0.553038162366896		3.1274015976251146		1.1005957613184398
H		5.17590828		0.69565445		1.72275358		-0.1272742325361555		0.455365451453509		0.42678491488057924
H		7.53034718		0.45839561		1.42654964		0.3787963035453484		-0.7919120515207004		0.40285082444808645
H		9.02482436		-1.27482775		0.93645951		-0.45140132465965005		-1.0121652919544193		-1.464329000111874
H		6.80520643		-2.4555903		-1.70270972		0.5834182140150765		-1.2060308382460982		-1.2514095228019502
H		4.49768855		-1.61683408		-1.72789485		-0.22419268463760414		-0.1090271136776676		-0.5918306063207109
20