20
Lattice="50.0 0.0 0.0 0.0 50.0 0.0 0.0 0.0 50.0" Properties=species:S:1:pos:R:3:forces:R:3 Energy=-13999.285746522562
C		0.90543121		0.29353584		-0.14950528		1.370447792128719		0.8766541191896906		-1.374748322055091
C		2.30208344		-0.16656723		-0.54092064		-0.06650122230212045		-0.407168889297752		0.03122321920608581
O		2.56016891		-0.53464017		-1.66768733		0.10785042262274644		-0.031110296356957338		-1.3774937973910737
N		3.2139589		-0.27372822		0.47291152		-0.5489827099901353		0.755421773302533		0.8317097453732462
C		4.5501953		-0.62944362		0.38408545		2.022121492106216		0.9582968248889536		-0.4116763416034011
C		5.64051012		0.2148818		0.92324316		-1.6343446338872818		-1.1841667429373153		-0.7181896289894764
C		7.00649003		-0.04254805		0.73025269		0.8482787566459151		-0.5073847811534645		1.4125378815250476
C		7.37369891		-1.16998693		-0.04980401		-1.8869825122294615		-1.4651934049815685		-0.6097944924592537
O		8.598931		-1.65269184		-0.37328359		1.587555339314448		0.714040896991441		0.6620184305456764
C		6.30364852		-2.01252167		-0.55816643		-1.593267302010801		0.9363324565584036		0.3620615589654204
C		4.8637371		-1.74006776		-0.40076935		3.159468704297979		-0.877743187050206		-0.5565986259705643
H		0.30957758		-0.39698567		-0.71975391		-1.1251318498359721		-0.1878718935372542		-0.5526131590207908
H		0.75366925		1.36996872		-0.41730686		-0.1293160483696456		-0.4870621650105852		-0.13796786179802226
H		0.7324284		0.16952645		0.87736401		-0.5169637343677185		-0.2047633725635135		2.1937791866016694
H		2.85979404		-0.00472243		1.36423805		-0.1983056356955257		0.514120711379278		1.1781367862068046
H		5.33939681		1.09469803		1.48861026		-0.10291878972399122		0.30294639602460127		0.3905799262648546
H		7.7700364		0.39581102		1.48568319		-0.8854864754793105		-0.06996737784326526		-1.4753143981560517
H		9.38866677		-1.16923246		0.0318142		-1.5316164143267106		-0.3647720672989409		-0.388711865580365
H		6.55557384		-2.95180551		-1.05778332		0.37967335824240456		-0.041951661204227615		-0.2824578923082755
H		4.11092755		-2.40238972		-0.93880182		0.744421308594059		0.7713426094780869		0.8235195992214978
20
Lattice="50.0 0.0 0.0 0.0 50.0 0.0 0.0 0.0 50.0" Properties=species:S:1:pos:R:3:forces:R:3 Energy=-13999.17074091943
C		0.84466239		-0.21859652		0.19652886		1.4012234337032865		1.8102008369372171		1.0129814115074782
C		2.37048453		-0.03580472		-0.32826789		-2.895537821134078		-1.477285457231618		-0.23862387508619862
O		2.584021		0.35145841		-1.47107636		0.7252982149018263		-0.08084530377693369		1.0744639433591248
N		3.16990924		-0.67218652		0.60676304		1.0580809771083808		0.835695726543644		1.3022295871615712
C		4.59612759		-0.82485871		0.49424965		0.9305384756724514		0.14991732066891253		-0.9185441767631095
C		5.44381904		0.25548697		0.08299677		-2.6871608145543284		-1.1224855162363827		0.6204081604140189
C		6.72270473		0.13184714		-0.32444509		2.159683325299175		0.4171800963689156		0.23662139713047864
C		7.26692285		-1.18647647		-0.36994316		2.19492831543112		1.4379105041544298		-0.4171050715798089
O		8.59717533		-1.24976543		-0.77390354		-1.1085725573331053		0.700957684487771		0.007865364405347982
C		6.54345652		-2.27493066		0.07363393		-0.08048606924869531		-0.5068493232172282		0.6272974826521048
C		5.23048012		-2.06686587		0.56899269		0.14869460686810337		-1.1171270287972743		-0.38993931021091904
H		0.61478339		-1.01682188		0.9119513		0.5534995725332118		-0.5218842086789232		0.27628750192522844
H		0.20617381		-0.39667852		-0.63767825		-0.7829915063939881		0.16380143179515827		-1.3001461708795634
H		0.54061046		0.72159427		0.74954751		-0.03245128090138919		-0.33924245311291534		-0.6255633250182211
H		2.77904604		-0.52636501		1.5747784		0.4399607899407747		-0.580204180846098		-0.9417377380743365
H		4.91875434		1.16801458		0.1009279		-0.4302139436926389		1.9762166055853678		-0.054527337951568965
H		7.35587653		1.08766419		-0.35764344		-0.4947578366098658		-1.390436164865708		-0.5766151265757105
H		8.98870654		-2.09410369		-0.53625462		0.06366786666141964		-0.7554911930868333		0.14860816638113392
H		7.08112499		-3.26346397		0.10095905		-0.6937618867575149		0.4805513605741545		0.07468103261931755
H		4.72813648		-2.97042555		0.92641673		-0.46964196433827		-0.08058068584359347		0.0813581360056943
20
Lattice="50.0 0.0 0.0 0.0 50.0 0.0 0.0 0.0 50.0" Properties=species:S:1:pos:R:3:forces:R:3 Energy=-13999.175267987435
C		0.94096575		0.4826693		-0.15910377		-0.3815757174425447		-0.7748872350865222		-1.1392640724135135
C		2.19414054		-0.43063533		-0.42498628		-0.4456232331909933		0.9034008421717188		-0.02238597782053374
O		2.15366077		-1.46423572		-1.07944868		0.18261938696884436		0.16347731853556957		0.14276430609461044
N		3.33721853		0.13756083		0.14014997		-0.38737031539324623		1.4901502802360853		0.9076350890595998
C		4.68891653		-0.27228711		0.03625533		0.9189187864880188		0.19202905875353035		1.5248130183549697
C		5.64152398		0.08249138		1.03699964		-1.0667645693713481		-0.22141980134233827		0.5338409694826806
C		6.94810394		-0.39201988		1.02942379		0.027033863778719296		1.2596452289010247		2.8272759074138527
C		7.36485689		-1.18734239		0.03341767		0.4703274718527197		-2.8232175239795323		-3.0749520709507467
O		8.44499021		-2.0145284		0.04510843		1.7142805384898816		1.1094435442267931		2.2765682957610736
C		6.54739194		-1.4340852		-1.10240052		-1.70656527508481		0.8154223727365868		0.15723339460322666
C		5.1784451		-1.05897962		-1.02398367		1.6308439227201743		0.9863552218398203		0.3456568411822623
H		1.28067935		1.49416552		0.20319573		-0.5480953708805902		-0.348416046208918		-0.5090483362956117
H		0.36081974		0.00197114		0.68112188		0.023908842199832372		0.26663635213530223		-0.5878230793061487
H		0.27814363		0.49287292		-1.16944353		1.3264787405706624		0.18456422079256385		2.2362588495430784
H		3.13094675		1.02059381		0.72948839		0.7007097787247253		-1.8046518307567514		-1.128410880491881
H		5.43124626		0.4644463		2.0459396		-0.8901355955669946		0.6661498333086678		-0.25685366470964266
H		7.51323415		-0.23720936		2.00828431		-0.17203112151292668		-0.21303435419742495		-1.1565069698145196
H		8.8988153		-1.78326634		0.92983532		-0.3390384617911973		-0.6674071541575023		-1.5838439519575045
H		6.99970105		-1.88032489		-2.00686172		-0.24554780437230977		-0.26307321458438687		0.3015812431108204
H		4.45410393		-1.10729171		-1.78501269		-0.8123739186086799		-0.9211671133242868		-1.7945389108460725
20
Lattice="50.0 0.0 0.0 0.0 50.0 0.0 0.0 0.0 50.0" Properties=species:S:1:pos:R:3:forces:R:3 Energy=-13998.675619704261
C		0.78088633		0.31186757		-0.09377307		1.3709068368801622		0.7110563090650905		-0.40809890871912613
C		2.20442911		-0.09708845		-0.50866395		-0.558116193877431		0.30244030008602085		-1.2851432185186467
O		2.50898275		-0.06638773		-1.70266983		-0.02443242163964391		0.07571163359483343		0.24044853554998494
N		3.09097138		-0.43805018		0.45487946		2.3588540343512068		-1.7210330780418652		3.0913805971488166
C		4.58699439		-0.77750208		0.25875771		-2.141250675639387		2.3153283952376107		1.535986878258007
C		5.53871433		-0.19858302		1.14119587		-2.0444523454758086		-0.5559637691876224		-0.9884896488077733
C		6.88002438		-0.34813701		0.97264729		2.42340224672168		-0.11119383370083581		0.278026956031544
C		7.43975853		-1.21350878		-0.10137576		-0.5570427583238988		0.7055103367863088		2.109212879542115
O		8.74767025		-1.58229705		-0.1759526		0.5306459624768064		1.4806708801347244		1.5064300424075032
C		6.48428887		-1.85308977		-0.87949683		0.27034306008456316		-0.722411483160308		-0.1185533592779157
C		5.14097433		-1.5308731		-0.7134494		-1.1509969929794495		-2.4917678273197934		-2.1021187432293122
H		0.6056829		1.3819602		-0.05976524		0.6736114831017628		1.1497827638189435		-0.06964989802973191
H		0.29947912		0.0186024		0.79226672		-0.39187812765333246		-1.2651152507935755		2.0803621200310385
H		0.14119452		0.06156859		-0.88938205		-1.1344776039970395		-0.9252784614829246		-1.671487303811685
H		2.71691596		-0.65527406		1.46313918		0.8720309158214784		0.6767958971627732		-2.2633985913483716
H		5.11674616		0.28541707		1.98727334		-0.17963711303530377		1.078946301698301		1.1982404472077945
H		7.41871772		0.21261918		1.83470509		0.2378337750967364		-1.06893262636814		-1.561967875308172
H		9.19362827		-1.06518982		0.580605		-0.46354901558126455		-0.9808830916427093		-1.3706673643353577
H		6.65349656		-2.80151049		-1.45934377		0.5131959370082733		1.020168930285681		0.034120543892467776
H		4.52073882		-2.18774051		-1.33301995		-0.6049911061842355		0.32616757098336113		-0.2346341401052423
20
Lattice="50.0 0.0 0.0 0.0 50.0 0.0 0.0 0.0 50.0" Properties=species:S:1:pos:R:3:forces:R:3 Energy=-13999.119283194304
C		0.99481458		0.45717161		-0.28073549		0.6040485397796248		0.5111424997886705		-1.708533197414567
C		2.30741723		-0.31612804		-0.39955238		-2.6344437388890616		0.47917098672988995		0.7280100087869078
O		2.35400707		-1.4500203		-0.81787623		0.30803244937687774		-1.257916059207198		-0.8758487468476823
N		3.32960137		0.37128606		0.10855534		4.543825855785604		-3.9077928445874632		-1.6573647485818832
C		4.68553832		-0.33212434		0.03345522		-1.3006713444033107		2.1662043627260323		0.6226212117154499
C		5.41710905		-0.41480302		1.27097537		-0.26129478255473826		-0.40067978497167295		-2.4429544575250133
C		6.73700565		-0.8793123		1.18382097		-2.9318856602392738		0.5105375706460715		-0.9209370510169094
C		7.24546977		-1.30173975		-0.05480526		1.4270123179281584		-0.24374016461119263		2.451225953379548
O		8.52042067		-1.74248875		-0.03838472		1.2550314871923023		-1.0124888909933834		0.7494548600205795
C		6.54456626		-1.30293442		-1.21801623		-1.1459747544066667		0.4320971738855497		-1.9915851688102657
C		5.23509649		-0.71679356		-1.22323342		0.794040410685285		0.05522883772743903		0.03282450223061255
H		1.07032583		1.17290453		0.53443338		-0.4092712803208019		0.31610838712793665		0.6832095139011836
H		0.17188506		-0.26510919		-0.20625479		-0.30285486475344975		0.13509491116923905		0.01910221633488015
H		0.93774471		1.09573387		-1.22860951		-0.3878855130368793		-0.6489435484161222		0.7146265428606233
H		3.23182363		1.21322186		0.56449741		-0.16970612438155377		2.5988675392529106		1.379167534101585
H		4.93025619		-0.18298554		2.21963692		-0.07775190676645023		0.12756651553909093		0.21705391397459917
H		7.10629166		-1.10736807		2.13472216		1.8294710491501038		-0.3858521304216301		1.7029850139871006
H		8.74318138		-1.94768237		0.91957018		-0.10090397047328453		0.36185319676839467		-1.3123182872808392
H		7.11895		-1.72328668		-2.10311588		-0.9212681576769907		0.5891427236946661		0.5212582993348467
H		4.78519886		-0.47358563		-2.23098074		-0.11755011483962034		-0.42560128184722795		1.088002086849243
20
Lattice="50.0 0.0 0.0 0.0 50.0 0.0 0.0 0.0 50.0" Properties=species:S:1:pos:R:3:forces:R:3 Energy=-13999.107498789966
C		0.88039393		-0.26072794		0.02008037		-1.8754690096039772		-0.6002811537966791		-2.644123890722206
C		2.2212314		0.05047664		-0.51071581		1.6939723205244872		2.0367422242769813		-1.8544132691168242
O		2.43332945		0.96066903		-1.36826911		0.12342148592955172		-2.3920678530165884		1.9890447646593121
N		3.16308863		-0.78419411		0.11725928		0.8783572693199202		0.48802010661186684		-0.1445934916998919
C		4.58483926		-0.83921942		0.14627801		-0.3679032595253212		-0.04943351986786332		-0.7104549280448001
C		5.31550869		-0.50359375		-1.00353652		-1.6266537959618712		-0.7711580042739107		-0.18420796874394726
C		6.62664924		-0.81573131		-1.1178932		3.677876678711519		0.8064998735715014		-0.9298584188966211
C		7.37267693		-1.22924395		0.04100061		1.4284372232784999		0.13709898320889483		-1.0055562713787192
O		8.73984207		-1.57995702		-0.13797596		-2.840328009569743		0.7415671270180682		-1.9324819357879337
C		6.69492089		-1.35762381		1.27700113		1.7760875435555543		-1.4962948567437855		-1.3624089296846829
C		5.31885713		-1.40794744		1.19751952		-2.398410815841199		0.4602889082443355		2.756135026683538
H		0.7481293		-1.35249223		0.02067739		-0.1421260554555473		-0.30885072865655966		0.4800916987579617
H		0.06858211		0.11098513		-0.69065759		0.8413651117722929		-0.039736193065861854		0.670764603458639
H		0.7387921		0.17852105		0.96809973		-0.3903613310774024		0.6395221009791365		1.8789746572890795
H		2.77591463		-1.35116763		0.84827954		-0.5504653623166021		-0.44602633073849696		0.5996900571888778
H		4.75640684		-0.38127013		-1.91334903		-0.5069991671071921		0.909345489700634		-0.6836383739019719
H		7.15052311		-0.52932518		-2.13696687		-0.6361948364286547		-0.958929779055585		1.910773289373921
H		9.17937328		-1.52758382		0.68368867		0.957648701213901		0.03232072028484221		2.14903916406138
H		7.29459858		-1.81169521		2.09678376		-0.5134085672364819		0.25730335064572124		0.056638007926672514
H		4.76571813		-1.79011891		2.13183543		0.4711538758182678		0.554069483251286		-1.0394136885776575
20
Lattice="50.0 0.0 0.0 0.0 50.0 0.0 0.0 0.0 50.0" Properties=species:S:1:pos:R:3:forces:R:3 Energy=-13999.290804441453
C		1.00205748		0.36997689		0.49968421		1.2019657699436603		-3.2188136210138016		1.1430015821781787
C		2.19542172		-0.49259376		-0.05611259		0.28206934720444365		0.3328466798301733		0.25551741099495573
O		2.13488418		-1.71351631		-0.26098545		-0.35319048186277974		1.0820829446633005		0.31886260421453516
N		3.3775688		0.23096441		-0.14961043		-0.033460541720990555		-0.7799894349664063		0.08289329025791721
C		4.70643555		-0.33301602		-0.19986398		-1.1543334106570462		5.023869680603431		-0.6672595728382861
C		4.9688566		-1.62326775		0.04881784		3.12545897495008		-0.8537963439462272		-0.7543585193173646
C		6.28835924		-2.14202159		-0.04038642		-1.0919233790650855		-0.0714566121937251		0.5308194090934321
C		7.27252029		-1.22114841		-0.20952492		3.645580383906338		0.9927305805637718		-0.7270793723007843
O		8.68267146		-1.41104658		-0.12409825		-1.6330367651510644		-0.9801560865238667		0.10605296442999332
C		6.99865953		0.107632		-0.57669722		-0.07519396769220303		0.5898850525881172		0.6440861689755372
C		5.74582228		0.64387068		-0.51770387		-1.680817425665769		-1.7917511665747599		0.6437974340949104
H		0.25724825		-0.42376264		0.55239829		-1.0691542554572764		0.032832061273791915		-0.4604370037841761
H		0.70347254		1.23604134		-0.02992497		-0.4133433420237322		1.40440013445493		-0.8308374215059351
H		1.16258597		0.51323974		1.59511484		0.33921442808888297		0.6075890002010021		-0.3005086817323497
H		3.26147585		1.25172654		-0.08573966		0.40184634588029255		-0.3572964307048611		0.049659674098494935
H		4.19160824		-2.26976728		0.06388541		-2.913864027124606		-2.4392105714246046		0.4720343243714453
H		6.48075327		-3.21151172		0.03104759		0.05342752288000256		-0.35961011498249607		0.2624649430077289
H		8.8148861		-2.31606542		0.24069883		0.05691717830368459		0.3203180542699688		-0.20445725702578046
H		7.81736399		0.77260293		-0.73082514		1.2059139558981615		0.5679637245238334		-0.24212782584324025
H		5.50999035		1.71735746		-0.59053001		0.10592363794294497		-0.10243753064157166		-0.3221241513692126
20
Lattice="50.0 0.0 0.0 0.0 50.0 0.0 0.0 0.0 50.0" Properties=species:S:1:pos:R:3:forces:R:3 Energy=-13998.798071648416
C		0.77304377		0.17055359		-0.32518604		3.588537324393789		0.8349574085710637		0.9902666924417359
C		2.22417287		-0.42591573		0.04533169		-0.9863650434537472		0.35685358390308763		0.9443659711079457
O		2.4811308		-1.40813607		0.71903763		-1.188585903561747		-0.7993296840283428		0.21108525234252257
N		3.28460778		0.2524915		-0.48737764		1.946532037331751		-0.09141577719924551		0.24068250593410817
C		4.64850332		-0.24717999		-0.31746006		0.10894488979981859		-1.4391544552670283		0.0950068369300684
C		5.6430942		0.19611028		0.62049719		-4.012335954419957		3.507073156095334		1.234311995571475
C		6.94212077		-0.17704889		0.71878386		0.9365416929304909		-1.2698013433441573		-1.8173217127224914
C		7.33186357		-1.163099		-0.20754318		-0.05238571189487373		-1.8028670223913597		-1.048503309445688
O		8.67789952		-1.51692115		-0.33971631		-1.3144816648699487		0.9807032172682779		1.6646203501707626
C		6.34127154		-1.91446272		-0.94816704		-0.23748873305773277		1.280751363009373		1.0072613755473216
C		4.98500834		-1.45175197		-1.00330753		0.7877784890310865		-0.6874224206331497		-0.7305394600385607
H		0.5749015		1.202899		0.00242339		0.18523075356597155		0.13163178952977847		0.7226708560432786
H		-0.02437853		-0.4574378		-0.09176339		-1.6377738169655292		-1.6118793632464585		0.54111256333298
H		0.92517466		0.32357761		-1.35147903		-0.38680883789341297		-0.04719686583977035		-2.4986592578624394
H		3.20110897		1.19881483		-0.78767885		-0.2438583839327529		1.1395789297018621		-0.48785257353242206
H		5.2955329		1.03614725		1.35545521		0.4177396712524385		-1.118987941815084		-1.165224757749013
H		7.70090776		0.34334728		1.29027632		0.2019056428652139		0.34440414831904786		0.6512595981086299
H		8.95057506		-1.05062482		0.50178013		0.9484797361035187		-0.6868192912627363		-0.9656041056505899
H		6.66150474		-2.88517523		-1.33278214		0.01198869390453555		-0.07154809204281413		-0.5238163926752812
H		4.22992151		-2.06798321		-1.62753176		0.9264051702931495		1.050468660672323		0.9348774178794694
20
Lattice="50.0 0.0 0.0 0.0 50.0 0.0 0.0 0.0 50.0" Properties=species:S:1:pos:R:3:forces:R:3 Energy=-13998.76321994904
C		0.72405175		-0.19505747		0.26663775		3.4982835315396046		0.45053897667245313		0.2858292769883348
C		2.21447879		-0.02614495		-0.18877279		1.3232721636007385		0.666834363803931		0.10962186125190257
O		2.75442722		1.03798715		-0.46926039		-1.1862232140586022		0.6930784875476254		-0.45483333595133163
N		3.08936434		-1.09936552		-0.02295286		-2.2496793393543233		-1.2371597493896604		0.10452156398832887
C		4.45531637		-1.13492581		-0.10603131		3.504458344220023		0.1257044198138449		0.9017905088642019
C		5.23662657		-0.38699164		-1.01688141		-0.014075761152977		0.1390419144163039		-1.5600248412566384
C		6.65797877		-0.32503289		-1.02296352		-0.8207285125161263		-0.5552004600926939		-1.1150384703090221
C		7.425317		-1.08135254		-0.13149502		-0.6269138226442053		0.06470319846668045		-1.2607875185961703
O		8.78310885		-1.06636906		-0.39546906		1.0195260002389352		-0.945626171592277		0.7665513588098056
C		6.67293513		-1.78565843		0.87458709		0.768057768129122		-0.22794099303538282		-0.6348097831767077
C		5.25734833		-1.85873834		0.87081176		0.2965378700703729		2.1413585591263957		-1.0413523517538839
H		0.34264156		0.8112473		0.21992531		-0.5156140594947334		0.7669160954987255		0.6871874732298401
H		0.8872062		-0.7164388		1.21496518		-0.6924743811580255		0.41313472271639423		0.8874780005357297
H		0.12329797		-0.82012809		-0.30623299		-1.293454052250953		-1.654033730220843		-1.7999391015778232
H		2.66686373		-1.92823187		0.37680031		-0.09869287321022657		-0.5321125196977282		0.1891378532925793
H		4.74483054		0.01307168		-1.92710436		-0.06560575850670913		0.3452210906251062		0.4948285419457273
H		7.23719244		0.08087756		-1.91801408		-0.8941472363465525		0.05256507204868072		0.9165477151886957
H		9.13611603		-1.32087913		-1.31252119		-1.5347176789127484		0.42995827319816404		1.427305217995843
H		7.2283271		-2.3426853		1.63429828		0.10260316110470592		-0.11930175597473526		0.29038897410942777
H		4.77353374		-2.10352634		1.79552089		-0.5204119950311324		-1.0176797425089223		0.8055970564211604
20
Lattice="50.0 0.0 0.0 0.0 50.0 0.0 0.0 0.0 50.0" Properties=species:S:1:pos:R:3:forces:R:3 Energy=-13998.306447336672
C		0.76207182		-0.17767056		-0.63019533		3.1809833352703887		0.7612546292676933		1.8713672773710164
C		2.31989449		-0.06469286		0.13505545		-3.3936595862249495		0.557794240344465		-0.7216178864705993
O		2.35709988		0.5596166		1.22159897		1.2695099345162837		-1.6084737828948736		-2.288312529180747
N		3.25555805		-0.7546745		-0.64657542		-1.4579866543520117		0.5821119907848574		0.5322480682543322
C		4.59954737		-0.96940407		-0.32651248		0.11802222079492478		0.8782388957321726		-0.7529001382043717
C		5.25608451		-1.80071653		-1.23991234		3.710149987854787		0.4803874784611433		2.48056691941191
C		6.66480327		-1.91643068		-1.04968271		0.8397550869971505		-1.640437325533975		-0.9990495292852215
C		7.38030624		-1.03786582		-0.23673675		0.9907184866823748		-2.052583099145434		0.06386887550351583
O		8.74329541		-1.3715878		-0.05617289		-2.3311903531516656		-0.5221363310510893		-2.231134126799844
C		6.67644005		-0.13567427		0.57084571		2.9308416895275227		-0.41182155750774485		0.2095666559944068
C		5.31943227		-0.1813198		0.6453637		-2.524026275487015		1.7510676248524797		-0.6439593621695486
H		0.55823654		0.78276114		-1.16034718		0.11218957051801426		-0.827233300571251		-0.7307200543218664
H		0.18259887		-0.07791204		0.26170732		-0.9843495557162287		0.014287877160561221		1.146823629813503
H		0.63572189		-1.21640413		-0.9584583		-0.23996527100713005		0.14428747900628372		-1.0729948664571431
H		2.95172178		-1.08354609		-1.62710131		0.3416618097288741		0.6035648638602703		2.088785928034536
H		4.88632239		-2.57569827		-1.82864041		-1.6957554833838808		-1.2673574584044123		-1.4657008378937726
H		7.30463478		-2.8331986		-1.42325464		-1.3038489707520786		1.6601248792056629		0.1260478163468503
H		9.0609504		-0.84174166		0.63681371		1.040433953718622		1.525987858215643		2.0022776153646964
H		7.4465428		0.42839987		1.13511528		-1.0135915857004467		0.6523565849667619		0.6412516820494626
H		4.75643087		0.66017126		1.17371575		0.4101077115885268		-1.2814216495933393		-0.2564152402052395
20
Lattice="50.0 0.0 0.0 0.0 50.0 0.0 0.0 0.0 50.0" Properties=species:S:1:pos:R:3:forces:R:3 Energy=-13999.227552731107
C		0.78345414		-0.35836468		-0.32116002		0.8445321965982595		-1.1459645214162402		-1.1164235235609687
C		2.26081905		0.14940812		-0.31475563		0.1810865981314939		-1.028566975835893		-0.16031614724678406
O		2.60673919		1.27154108		-0.56301174		-0.0020624875025928996		2.4551822125978537		-0.5107726723155686
N		3.20239993		-0.81992354		-0.01802355		-1.464711220302025		-2.967439748388574		-0.7798972352084431
C		4.62349999		-0.98768435		-0.17501556		-1.6669687443405476		1.8636146301265468		1.1468721208183883
C		5.12064377		-2.08202754		0.597924		0.8169650346099266		-0.2567845020356546		-1.1927816867469192
C		6.52451585		-2.28229195		0.68889431		-0.8533019722378841		2.1567977762650927		-1.998141018973398
C		7.32927503		-1.24382554		0.04837326		1.5255011998166665		-2.2032537530291605		1.0043196736210498
O		8.70991865		-1.51664315		-0.06531296		-2.4338875137865204		-1.6654934453690105		2.1994163816192276
C		6.78717632		-0.07575363		-0.44120029		-1.106316414343346		0.6781460862563827		-1.384110582698203
C		5.39511007		0.07483387		-0.72075774		1.7498240336943183		-2.447173174950035		2.2587714284813516
H		0.51433093		-0.72272845		0.68053201		-0.2419711428189714		-0.08235716383486917		0.22864444684962576
H		0.69327324		-1.24761142		-1.06482727		0.10995358497673306		0.9826510849936816		0.9774175531663138
H		0.07606142		0.40610102		-0.67898228		0.1494244916224429		0.2848360084301537		0.16681157648654385
H		2.70603401		-1.74600725		-0.06351148		0.7044261025996632		0.6234096661989138		0.4557519396748431
H		4.31702826		-2.82218125		0.86292953		0.8890237477328161		0.26984858553209534		0.37802019035687107
H		6.98734104		-3.21633069		0.93946025		0.4170508727259922		-0.7401489065358442		0.6294109294185803
H		9.16664841		-0.9457208		-0.64251887		0.687655928218711		1.768688217302142		-1.4847941582118496
H		7.47638866		0.69082296		-0.77963821		0.4020100737271163		0.4744139831551969		-0.26849104308355626
H		4.98804377		0.97446688		-1.10916773		-0.7082343177001899		0.9795939405372216		-0.5497081724471046
20
Lattice="50.0 0.0 0.0 0.0 50.0 0.0 0.0 0.0 50.0" Properties=species:S:1:pos:R:3:forces:R:3 Energy=-13999.070722781466
C		0.78951958		-0.29437309		-0.21588442		-1.137603139796551		-1.1329185384857798		-3.717655809199522
C		2.23015098		0.12833683		-0.27889936		-0.12283512015149525		-1.0412325897704502		1.7285178163409978
O		2.56995691		1.28837082		-0.26160468		0.5895276692541268		1.2629158777607548		-0.39850015801083105
N		3.09088624		-0.93801532		-0.04580407		2.3679207209793875		0.01058805976766788		-0.04026722870472786
C		4.55760211		-0.97092599		-0.0172901		-1.825432103255388		0.11618578467883861		-0.5116791918544055
C		5.15800222		-2.07089947		-0.55105932		0.3595526765387454		-1.6912401635026773		-0.5445296622265525
C		6.53619097		-2.24410859		-0.57905389		0.14457940205478206		1.0634819905931308		0.8435889617068372
C		7.40923926		-1.2760919		-0.07262633		-0.16637222638501667		0.7415337540995416		-0.3042628008231845
O		8.77019181		-1.52217315		0.07053681		-1.6927832881745792		-0.1294505684850009		-0.6306697415072257
C		6.78285894		-0.00089064		0.20020761		3.1903639021677312		-3.5379599207468435		-0.11990617089670982
C		5.45695859		0.01629817		0.3349999		-3.085389464075452		2.2675812619076203		0.5564606605770253
H		0.47693627		-1.04243502		0.49240958		-0.019702568913921564		-0.15356515035667434		1.4675139283935086
H		0.52081809		-0.95249343		-1.16376349		0.6263506482163113		1.0228860720652566		0.8917417122653912
H		0.10554831		0.5556496		-0.35924246		-0.0005201855836901886		0.19459697370789186		0.5420042218957704
H		2.80241239		-1.86483276		-0.33875354		-0.6654948704993101		-0.24959790885457617		0.057840204324566234
H		4.54699044		-2.87304288		-0.95143833		-0.3347053302772356		-0.5334719133405151		-0.3507337928294861
H		6.93159229		-3.0978869		-1.02330998		0.9267995260900378		-2.1188780675550887		-0.7702597122650646
H		9.11638303		-0.68683116		0.3947414		0.6263952825665132		0.5814033433423075		0.29623139457820274
H		7.48252865		0.77245817		0.35273428		0.6141650078126127		1.8588620488492242		0.6386846926922252
H		4.97441265		0.91310297		0.64363461		-0.3948165385676078		1.4682797057474348		0.36588067554318543
20
Lattice="50.0 0.0 0.0 0.0 50.0 0.0 0.0 0.0 50.0" Properties=species:S:1:pos:R:3:forces:R:3 Energy=-13999.29930119554
C		0.90714205		0.03954736		-0.59174749		0.8619772855487978		1.7834773053053516		-1.130102614924248
C		2.29201768		-0.06203551		0.05052937		-2.020767703468235		-0.11733686754666232		1.4523745018788639
O		2.56213674		0.36319645		1.16915568		-0.4530916192742685		0.7619170996981678		0.26186700726562245
N		3.14775233		-0.79578882		-0.63118751		3.4330453893573125		-1.5553414740753655		-2.9548075587946063
C		4.58094515		-0.90262716		-0.34591256		-1.8508031318008344		-3.0656424150775154		-1.719436628691208
C		5.27704793		-1.9868539		-1.06045671		-0.35645974232682404		1.813142538863489		0.6935234426539589
C		6.6643118		-2.05357182		-1.03869932		-0.9385302355072883		2.048618560975075		1.9040289259298668
C		7.3212369		-1.10856576		-0.17858885		0.9663285910883725		-1.7229729239255274		-0.8138006751532696
O		8.66654187		-1.08341994		-0.09460365		1.5970275917491294		0.1614778744815338		-0.7251082103810932
C		6.64776263		-0.26797321		0.64342738		-1.0836503919707385		0.308707723900901		-0.18167733478485815
C		5.25951343		-0.1787448		0.58154289		0.4390750963372278		3.581271541236545		1.3153560456197573
H		0.80959183		1.13207193		-0.79930332		-0.07352388194812534		-0.019604404196714706		-0.1628685841603497
H		0.12284965		-0.10409852		0.10843946		-1.0515015242185866		-0.6587178540456033		1.2280591242002667
H		0.68561124		-0.45856381		-1.56058555		0.31148220128010273		-0.2559420543866237		0.2659833433643175
H		2.92826723		-1.05941222		-1.63294787		0.09522604918226998		0.25270004761567516		1.3970580923790814
H		4.72772123		-2.67343288		-1.69636596		-0.44833836951013384		-0.25538263376928827		-0.3181068027407235
H		7.19367418		-2.71964387		-1.6500497		1.1372659139110388		-1.3107154101723766		-0.9949070707788045
H		8.95997698		-0.16639138		0.13956848		-0.2803425429254895		-0.7866716291369651		0.009178221081622617
H		7.26261098		0.45543552		1.15303757		0.13554608834512852		0.5601293162000771		0.8956844989033355
H		4.89550544		0.77657202		1.09006531		-0.4199652181150434		-1.5231143419441728		-0.42229762002340837
20
Lattice="50.0 0.0 0.0 0.0 50.0 0.0 0.0 0.0 50.0" Properties=species:S:1:pos:R:3:forces:R:3 Energy=-13999.411687461341
C		0.72665018		-0.36493532		0.08057178		2.4437247600204337		0.454481711888335		0.7867287590483412
C		2.24160715		-0.0057302		-0.18019885		-1.1936625466765962		-0.16066494309634619		0.22170210846515942
O		2.61573483		1.05437808		-0.61855734		0.0780488177550057		1.2578765670632404		-0.5436040136804863
N		3.12552625		-0.95949719		0.26233926		-1.4313468892598684		-1.920381758852018		0.7117679904093246
C		4.50245383		-0.99194173		0.14772598		3.427674663467343		-0.3883435293470739		-1.0064052496296807
C		5.16133837		-2.06977428		-0.54465126		-0.048949689682321496		1.1975114366285167		0.35496541719218216
C		6.5474211		-2.12241171		-0.78592476		-1.5877397388303747		0.8879556086517157		1.6215197658253337
C		7.36746843		-1.10733727		-0.25719638		2.5525137381269203		-0.6685522720660825		-0.5944755515246145
O		8.80481665		-1.36958188		-0.4620292		-2.349565101569141		1.8119949526959114		0.3062670271290277
C		6.81431425		0.03199727		0.41800697		-0.27335618725557054		-2.401342541887357		-1.2784776336742576
C		5.41897549		0.01825828		0.60040292		-1.4770911846797021		1.1578704772223023		0.3878825819793199
H		0.54030984		0.02598325		1.08187373		-0.354803849071981		0.44472355278646153		0.4920993159814769
H		0.54464143		-1.41087732		0.16779311		-0.16437859302403715		-1.6110422634919215		-0.07754873819773138
H		0.04778325		0.05709255		-0.61671947		-0.7616439457024619		0.8680127444399903		-1.119226951561327
H		2.66964298		-1.88744558		0.4112453		0.5524010430132066		0.6478725296995249		-0.025310093401449373
H		4.61787101		-2.87835297		-1.00397066		-0.8771513705335305		-0.5958099026229909		-0.1475470207005259
H		6.81370032		-3.05789564		-1.23512923		1.212750519100179		-0.47496527908666614		-0.6088348539299113
H		9.21269097		-0.46853977		-0.56789098		-0.18768296887983255		-0.7412741755283208		0.23347385268824097
H		7.48316496		0.82493934		0.72149831		0.12229153752939273		0.594291871917562		0.4233198392027457
H		4.94193837		0.90851974		1.08103135		0.317966934730874		-0.3602147870147829		-0.1382966544652934
20