20
Lattice="50.0 0.0 0.0 0.0 50.0 0.0 0.0 0.0 50.0" Properties=species:S:1:pos:R:3:forces:R:3 Energy=-13999.068228876471
C		0.88626435		-0.14519568		-0.12526654		-0.2689472596215653		0.25990381576561017		2.7341022155878743
C		2.39278953		0.03915494		-0.00533066		0.8831527365973221		-1.99263592723426		-0.5025165002356412
O		3.05450776		1.03408153		0.12789433		-0.3892914436461788		2.475788678525427		0.06906456069292435
N		3.1269793		-1.16189939		-0.0605768		-3.508201818943931		-0.3527824992193438		-0.4250796050237268
C		4.45388622		-1.25045008		-0.23708455		2.8550342052082924		0.5663101966838628		-0.24312166004410826
C		5.12459926		-0.51845002		-1.24097257		-1.839472228919091		1.7600500307203133		-0.1076093045719434
C		6.46515017		-0.27347463		-1.06458207		2.00175352170426		0.31992940632201206		-0.767045884784336
C		7.25377724		-0.98303961		-0.12220234		0.4565473875587995		-0.8056223560758833		0.06852560605644187
O		8.66274817		-0.95684806		-0.21498658		-2.082036113851862		0.15319686554544565		0.2819253140075362
C		6.60455798		-1.87833056		0.78164548		2.3178535270360183		1.5739156372510017		-1.3055859051773342
C		5.24680434		-1.90028579		0.72236583		-0.7004783280216618		-0.591664770169327		-0.3029076752115804
H		0.60525872		-0.84863172		0.73934565		0.2023973406263098		0.57567929646128		-0.6223987598733142
H		0.53288166		-0.71065738		-0.99323425		-0.06331171745692792		0.3909621464550058		-0.6641800597846627
H		0.38262936		0.83439719		0.16618101		0.2451603905538517		-0.858124744630444		-0.8955739414690794
H		2.62152472		-2.02116554		0.05390662		-0.5717980620320819		-0.8008814990287977		0.1215150129644159
H		4.53388461		0.15024896		-1.98147691		0.7686330781637527		-1.1795137147728854		0.9712128642676162
H		6.95648666		0.47902113		-1.74567483		-0.10792760713847585		-0.5884645181130834		0.3731083549521571
H		8.67189638		-0.6221436		-1.12156208		1.0983433207171767		0.3245378001362401		-0.5128283721059187
H		7.27170489		-2.43663813		1.44008911		-0.22526051518632997		-0.3656669140296029		0.3773208503076238
H		4.76481112		-2.57431802		1.37675661		-1.0721504647697393		-0.8649169305925718		1.3520728380229938
20
Lattice="50.0 0.0 0.0 0.0 50.0 0.0 0.0 0.0 50.0" Properties=species:S:1:pos:R:3:forces:R:3 Energy=-13999.175267987435
C		0.94096575		0.4826693		-0.15910377		-0.3815757174425447		-0.7748872350865222		-1.1392640724135135
C		2.19414054		-0.43063533		-0.42498628		-0.4456232331909933		0.9034008421717188		-0.02238597782053374
O		2.15366077		-1.46423572		-1.07944868		0.18261938696884436		0.16347731853556957		0.14276430609461044
N		3.33721853		0.13756083		0.14014997		-0.38737031539324623		1.4901502802360853		0.9076350890595998
C		4.68891653		-0.27228711		0.03625533		0.9189187864880188		0.19202905875353035		1.5248130183549697
C		5.64152398		0.08249138		1.03699964		-1.0667645693713481		-0.22141980134233827		0.5338409694826806
C		6.94810394		-0.39201988		1.02942379		0.027033863778719296		1.2596452289010247		2.8272759074138527
C		7.36485689		-1.18734239		0.03341767		0.4703274718527197		-2.8232175239795323		-3.0749520709507467
O		8.44499021		-2.0145284		0.04510843		1.7142805384898816		1.1094435442267931		2.2765682957610736
C		6.54739194		-1.4340852		-1.10240052		-1.70656527508481		0.8154223727365868		0.15723339460322666
C		5.1784451		-1.05897962		-1.02398367		1.6308439227201743		0.9863552218398203		0.3456568411822623
H		1.28067935		1.49416552		0.20319573		-0.5480953708805902		-0.348416046208918		-0.5090483362956117
H		0.36081974		0.00197114		0.68112188		0.023908842199832372		0.26663635213530223		-0.5878230793061487
H		0.27814363		0.49287292		-1.16944353		1.3264787405706624		0.18456422079256385		2.2362588495430784
H		3.13094675		1.02059381		0.72948839		0.7007097787247253		-1.8046518307567514		-1.128410880491881
H		5.43124626		0.4644463		2.0459396		-0.8901355955669946		0.6661498333086678		-0.25685366470964266
H		7.51323415		-0.23720936		2.00828431		-0.17203112151292668		-0.21303435419742495		-1.1565069698145196
H		8.8988153		-1.78326634		0.92983532		-0.3390384617911973		-0.6674071541575023		-1.5838439519575045
H		6.99970105		-1.88032489		-2.00686172		-0.24554780437230977		-0.26307321458438687		0.3015812431108204
H		4.45410393		-1.10729171		-1.78501269		-0.8123739186086799		-0.9211671133242868		-1.7945389108460725
20
Lattice="50.0 0.0 0.0 0.0 50.0 0.0 0.0 0.0 50.0" Properties=species:S:1:pos:R:3:forces:R:3 Energy=-13999.025698956664
C		0.96232579		-0.41888246		0.2683446		-1.2378167176594534		-2.539990717571522		-1.0372910372620046
C		2.32831082		0.11521539		-0.04981031		0.8161052577258519		1.4501225240761626		-0.5386428130958254
O		2.52043017		1.35108		-0.09894329		0.618689943619493		-2.4555423213011536		-0.0625260911868984
N		3.24496807		-0.99078968		-0.35673077		-4.955765272660472		0.8434815410183902		1.0350582913106572
C		4.57074844		-1.09642613		-0.27674372		2.6034429201030487		1.370469543661133		-0.6539559139529156
C		5.23271526		-2.34906464		-0.03331418		-0.26638788072956965		1.5905140105213267		0.3625938287337851
C		6.5952203		-2.33386615		0.07639452		1.249785974024385		-0.7508500948408905		0.13924878537351876
C		7.27248242		-1.12403636		-0.1083875		1.9237826597959207		-1.539759355025135		-0.08129874352357072
O		8.60862458		-1.27324733		-0.03747683		2.3470177554397575		-0.3585058776135594		0.3390696235610388
C		6.70689055		0.07151453		-0.36349699		-2.745539459294753		1.9512578791366022		-0.377013963438954
C		5.27522699		0.1306172		-0.51512571		2.219348087243403		-1.0108996407314685		-0.037615958587143596
H		0.90788688		-0.97537326		1.25989837		-0.00994934633004275		0.7596252183750094		-0.5018784552848278
H		0.73258668		-1.2867289		-0.50609935		0.2558315997964926		1.2929463622284367		1.1050784281899906
H		0.12509448		0.30942984		0.12179951		0.6121942058473585		-0.06783392789449873		0.39761338454397294
H		2.73852808		-1.82326648		-0.05234112		0.06216922207353246		-0.3823772845519321		-0.31625380872053016
H		4.7636063		-3.27626712		0.21430922		-1.1668969517976506		-0.8254545600092278		-0.0026980127723464625
H		7.27443049		-3.22321309		0.3029738		-1.035191937250951		0.7960595493892371		-0.3004091286194568
H		9.17818039		-0.75548749		-0.649185		-0.8789283627454306		0.16900045941862568		0.27269767632390424
H		7.337062		0.97360204		-0.36485978		-0.0633626767208106		0.05766392949450594		-0.3602334018013879
H		4.83102973		1.05042994		-0.94088491		-0.348528917635984		-0.349927289202104		0.6184572587869309
20
Lattice="50.0 0.0 0.0 0.0 50.0 0.0 0.0 0.0 50.0" Properties=species:S:1:pos:R:3:forces:R:3 Energy=-13999.17279882238
C		0.70553312		-0.35540975		-0.15833314		0.007992942542273184		1.1034909777002617		2.2020672403603125
C		2.19461488		0.05620464		0.05793342		1.6070959801537312		-0.054529703366441425		-0.637757552906348
O		2.66026228		1.11205293		0.46462424		-1.1611407661275952		0.2720779376273212		0.24435234426459626
N		3.10478466		-0.94229178		-0.3806421		-1.626999300799437		0.002795766113053763		0.7765352093437486
C		4.499268		-0.99179499		-0.16582167		0.22091838481144035		-1.7375008906956424		0.5186760890471256
C		5.2904734		0.04636841		-0.61028813		2.5276377497766287		1.6490500581948937		-0.8166774310146735
C		6.73668799		-0.02931029		-0.64629834		-1.8739946876516267		0.48622892191073197		0.469635485158402
C		7.45381547		-1.17487998		-0.20554676		-1.2591609873389833		0.3858319215510893		-0.8518629258203704
O		8.79399374		-1.19029725		-0.41627071		0.5082341707809255		0.24505744358483744		0.1908351927297527
C		6.70655568		-2.26315135		0.27275835		-3.3515426545120244		0.9383460931016743		0.6211293548398054
C		5.1929224		-2.11403054		0.38551921		3.6932164970035104		0.3021822641766736		-1.0597854642122337
H		0.14333636		-0.14963228		0.89420403		1.025147871481885		-0.6737610184593519		-2.1992703429618845
H		0.65938734		-1.41536252		-0.49286347		-0.41977984157993037		0.23566854631337905		0.18798929010581536
H		0.23654464		0.33171244		-0.90202106		0.10764848818352625		-0.23761615692847063		0.13605686369139133
H		2.56241469		-1.77869778		-0.55106514		0.5602313375719674		-0.9273756588776678		-0.15141411406255173
H		4.82069444		0.97770173		-1.01259546		0.19180470429508434		-0.5604771350304528		0.2234151316313784
H		7.25085295		0.87802162		-1.01940561		0.18132853893529602		-0.41445354435191234		0.03023339592608854
H		8.98220055		-2.01375179		-0.88195378		0.35926507294349247		-0.506423034319562		-0.011910583791682111
H		7.16629237		-3.18308874		0.68497196		-0.05210525596630055		0.22308998993054083		-0.1622904973343468
H		4.80751215		-2.98233756		0.87519262		-1.2457981930818014		-0.7316828295970178		0.29004326358361227
20
Lattice="50.0 0.0 0.0 0.0 50.0 0.0 0.0 0.0 50.0" Properties=species:S:1:pos:R:3:forces:R:3 Energy=-13998.494755912787
C		0.72579161		-0.62065193		-0.11224057		3.5061672021991837		-1.438058651116333		-2.6610060623551637
C		2.20426512		-0.088687		-0.02704893		-1.3395480176954102		0.11817967515013034		4.767249060680787
O		2.34952848		0.63206422		1.00002429		1.090431779299753		-0.25589613448486065		-1.6607835958255792
N		3.23294274		-0.67099033		-0.70789857		1.250385709538677		0.50513084931239		0.008689968598710561
C		4.68897258		-0.68025943		-0.46317748		-4.003879236296495		0.4308139877393057		-0.38321140182684693
C		5.50317216		-0.92667329		-1.51214239		-0.8208606672166092		-1.03206136208932		-3.445332125535777
C		6.83260544		-1.15837901		-1.33536002		0.554457925510993		-1.753460550528342		-4.383869611553871
C		7.37291872		-1.18146404		-0.11099408		2.267405809830559		-0.7565828834725333		0.8159198297686764
O		8.71437624		-1.52344665		-0.10826876		-0.8125530730742373		0.4705950208436193		0.7749307895734129
C		6.57301598		-0.92804973		0.98916308		-1.1081651917544189		1.7878601105316345		0.23550677250492816
C		5.21073018		-0.5710783		0.77906402		-0.7153663520730147		0.9388079146444898		3.706432224162101
H		0.07534517		-0.16720806		0.5377742		-1.443987820604452		1.6748076263837366		2.326109956226258
H		0.6593653		-1.71429424		-0.01125003		0.12244261554885516		-0.2607962456593373		-0.0940397936237341
H		0.44993155		-0.33271397		-1.09384221		-1.1529060884697695		0.012866417088403465		-1.8780061741649967
H		3.01144529		-1.17191099		-1.54489942		-0.43948071356579127		-0.5038975939887798		-0.8289994427279755
H		5.03745831		-1.14429632		-2.52155954		0.45239089082933504		0.4554345627054346		0.6466703847236936
H		7.42558126		-1.62508647		-2.21168369		-0.5541527355703839		1.0754191081690345		1.1160093188479772
H		8.96767856		-1.32419112		0.80241598		0.7502105072282038		-0.17887370109625036		0.5106448884903935
H		7.07732815		-0.57961412		1.87119043		0.2540573843759644		-0.2636469819571443		1.344151269303394
H		4.38897559		-0.13183213		1.53763547		2.142950020536995		-1.0266412195973404		-0.91706630668845
20
Lattice="50.0 0.0 0.0 0.0 50.0 0.0 0.0 0.0 50.0" Properties=species:S:1:pos:R:3:forces:R:3 Energy=-13999.39770763055
C		0.96995448		0.12098729		-0.51075661		-0.1916492554003141		-0.2699400139591219		-1.5109369290704655
C		2.25955928		-0.23988981		0.20970462		-0.12213521445956099		0.3999109737160628		-2.132382581016368
O		2.34769317		-0.39799886		1.40180145		0.2556480744556276		0.030325852794364037		1.3809926059418711
N		3.29542859		-0.40069868		-0.71694838		-1.2749157816749035		0.3232709662058534		-0.5358742492538048
C		4.63552216		-0.61193297		-0.49603696		1.0329582142804175		-3.2243672551798874		-2.4356694425164154
C		5.36061333		-1.38306185		-1.5264919		-0.3949321867860459		0.9057288217827135		1.1788135519706389
C		6.69669225		-1.70786436		-1.31637132		-0.23923425496741677		2.1111308710492382		1.965593578815237
C		7.29191783		-1.12454555		-0.12485435		1.7117348892885589		-0.20833967416241478		0.14427472633479743
O		8.68429293		-1.16996905		-0.0399057		-0.8798566338166817		-1.0372437289645553		-0.9471858541682859
C		6.59258878		-0.48379212		0.93186416		0.8662986928325223		-0.7039277713925121		-1.523428016525085
C		5.24562387		-0.3795913		0.70688547		-1.2249904612018192		1.4757176499697424		0.8874586658402506
H		0.29679593		0.73380186		0.04150288		-0.6344570278283373		0.8202551724313234		1.3769073287688924
H		0.39483022		-0.80191671		-0.68460367		-0.13229888794587308		-0.3716065736184608		-0.11857418521320577
H		1.01001715		0.66402354		-1.50534579		0.5712467146785504		-0.5479152393958466		0.5260527381709995
H		3.00707335		-0.50752047		-1.70585688		0.04195819180615809		0.2800360160112569		0.6122608488402869
H		4.88469748		-1.68394148		-2.46290068		-0.3612932105083723		-0.0019618031043262536		-0.22326297374860465
H		7.36985974		-2.05270869		-2.10112117		0.08550748506847886		-0.4857663804590422		-0.28220294172267485
H		8.86461618		-1.81215304		-0.78300351		0.5860448015426875		0.7169358562629506		0.8042997292077443
H		7.0309422		0.06973187		1.77284596		0.41961523955804503		-0.5288537493344226		0.060719839821467246
H		4.57565343		0.06552534		1.42919223		-0.11524944034378379		0.31660995792502183		0.7721436109447873
20
Lattice="50.0 0.0 0.0 0.0 50.0 0.0 0.0 0.0 50.0" Properties=species:S:1:pos:R:3:forces:R:3 Energy=-13999.314534071773
C		0.77662898		-0.22276492		-0.38919358		0.38929082658142944		1.0712818947129867		1.1543073910934492
C		2.22402872		-0.26957008		0.20506648		1.1288008139913988		0.7180811798597806		-0.07426158285595645
O		2.60628227		0.15877209		1.32361471		-1.6466695252360806		-1.0194801317592348		-1.5452901063734328
N		3.14865296		-0.52245756		-0.78854988		2.1801335195789795		-1.035727600875437		-1.5042519066864721
C		4.61586366		-0.62307718		-0.61648215		-1.5762707162889047		-1.4328833290636522		-0.5240626529323287
C		5.3542396		-1.51020105		-1.41882412		0.1175866759260185		0.13812721876953826		-0.9747863890751456
C		6.70195617		-1.85801651		-1.18549133		-0.13518587679770366		0.5508435201638202		-0.39175034382815754
C		7.33386086		-1.18621902		-0.14351508		0.8394550392627859		0.5644348340665061		1.2815665569653085
O		8.63376383		-1.31721598		0.2375772		-0.30856970708529957		0.4157815705366083		0.5678450938257736
C		6.63871009		-0.28938005		0.69687847		0.90917965354925		-1.12686230508136		0.2530018437001629
C		5.29979793		-0.11665967		0.46157284		-0.8662923679188416		2.052015193887795		2.1575800601010635
H		0.81821516		0.27043494		-1.38986104		0.03804949799561453		0.0028528446023673363		0.30682238540343004
H		0.43239265		0.52189634		0.38002734		-0.9442289827335931		-0.41636490241298046		-0.665415526256958
H		0.1000368		-1.10919648		-0.51508639		0.6024664371843899		0.11371608586374643		0.5947385239519566
H		2.86287359		-0.94327972		-1.72702138		0.05280655005392084		0.6853094366652361		1.586710937627044
H		4.91642552		-1.78232294		-2.37392827		-0.39943022885426765		-0.7695145551581791		-0.44626292364780484
H		7.29932731		-2.52726828		-1.84248934		-0.4494034232674876		0.16057855403143917		0.0548718657699482
H		9.09847946		-1.85934025		-0.38065608		0.8198839051404728		-1.0177627891397703		-1.0552040669807894
H		7.19620068		0.00484652		1.63204251		-0.6584228456733584		0.23475179378411568		-0.7979361975581549
H		4.72718989		0.46258939		1.19421305		-0.09317929683078516		0.11082143512461161		0.021776934912939177
20
Lattice="50.0 0.0 0.0 0.0 50.0 0.0 0.0 0.0 50.0" Properties=species:S:1:pos:R:3:forces:R:3 Energy=-13998.86133183802
C		0.99759062		0.52435666		0.04486975		0.22788016073551076		-3.342246882595653		0.047157013741375736
C		2.24443317		-0.07583041		-0.56757736		1.9224831214338194		-0.0332727997710051		-1.2238725455642725
O		2.49248502		-0.07284286		-1.80427858		-0.46506550362481996		0.034424551125640614		2.551497072530327
N		3.19862643		-0.51630426		0.40733414		-0.7506836930468196		-0.20872317990412703		-1.2782637693165502
C		4.59317339		-0.80012454		0.17180286		-1.0099301291661371		0.03387114688961117		0.690137865484665
C		5.3917967		-0.49172649		1.29835908		-0.3151870066130532		-0.06627573655830062		-0.3748326395500515
C		6.73129393		-0.85532784		1.24846772		-0.0649031274454653		0.8304164805027631		0.47586624504275904
C		7.32982032		-1.30600229		0.04666086		1.5642664929215109		0.9476671132507055		0.9466650515198466
O		8.69823653		-1.30370814		-0.16312195		-0.4476538390148705		-0.6872205890380545		2.018444403264923
C		6.55064614		-1.57479536		-1.02589343		-3.0451700578887975		-1.241898549554248		-2.4219761072418393
C		5.15239971		-1.40337041		-0.99123175		-2.0415345548085737		1.1487526770640522		0.7180925955576434
H		0.89349803		1.55993589		-0.06936612		0.010489432251899022		2.1935045413661522		0.21778107335962918
H		0.74215021		0.02483266		0.98331071		0.5467614311587133		0.7724262265999832		1.2770520084150419
H		0.17630481		0.05480125		-0.4495811		-1.217041124568499		-0.18682838562406473		-1.651180577086101
H		2.84081735		-0.89083881		1.31125681		0.17035661347147874		0.7368890048871649		-0.5896559672999262
H		5.00818767		0.12731258		2.17215167		0.16018162713142883		-0.928087597332214		-0.783577100841108
H		7.18709902		-0.55101349		2.1939935		1.2655485845137964		-0.2011182682450613		-0.0892767222456725
H		8.97748938		-1.37686002		0.78864931		0.7366154395149594		0.19120070074960932		-0.8864087301692555
H		6.83479354		-2.09997175		-1.94010707		1.0633144575136861		0.20081786055625955		-0.17360926460935333
H		4.33034849		-1.54225754		-1.78675081		1.6892716241081707		-0.19429831436921324		0.5299601464299819
20
Lattice="50.0 0.0 0.0 0.0 50.0 0.0 0.0 0.0 50.0" Properties=species:S:1:pos:R:3:forces:R:3 Energy=-13998.71993701286
C		0.93640672		-0.09993837		-0.11749074		0.18440625221673387		-1.4829921748776014		-1.4754420791371017
C		2.42132911		-0.23291835		-0.58485079		-0.5556995626307818		-0.07190629812980365		-0.9296493882127834
O		2.9574869		-0.21901404		-1.68908373		-1.460883310551582		0.23782379921662214		-0.5527294243039782
N		3.16056229		-0.33659642		0.53665899		1.9979418613255497		0.24064383654314978		0.6766463618051842
C		4.59473144		-0.50483241		0.4396353		-2.5730249189727843		0.6910763695463424		-0.4369963594629024
C		5.26165161		0.09897067		-0.65658634		1.7902196118669083		-2.477005221678743		1.4416450828615355
C		6.54289479		-0.40348039		-0.98643443		-0.022905957715974153		2.8646060107558666		-0.6231981158340164
C		7.20524261		-1.26885223		-0.11456555		-0.4170149801264058		-0.6441601139013327		0.9008451142461568
O		8.41669438		-1.73360863		-0.54755549		1.024877802809926		-1.7126865059761598		2.421567044735092
C		6.57221438		-1.59668974		1.15660388		0.37358421471802006		1.0770890910689872		-4.130808786748084
C		5.2308411		-1.31627841		1.34722126		0.9580698479053228		-0.011344221195916618		1.5728915154553538
H		1.12531243		0.55830639		0.75387594		-1.2016875251637724		-0.11121517385675037		0.09879150072599542
H		0.51044793		-1.17552477		0.08319434		0.5767881103937743		1.6999303892117004		0.14651246022620176
H		0.30510474		0.3261371		-0.93548775		0.20335487085109177		0.1326626476156066		0.49648258400632217
H		2.57811206		-0.63619285		1.31119799		0.6648129111071691		-0.06689830346831813		0.8789217292993753
H		4.89878972		0.95234302		-1.13572215		-1.0005038480552813		1.3499770804459992		-1.1815874637071535
H		7.11176801		0.23430413		-1.77197385		-0.5798233490516328		-1.4894031690908272		0.8444200450800677
H		8.80546471		-2.39142281		0.17688437		-1.072155606975984		1.7882983293477883		-1.8842251069749916
H		7.12520556		-2.20885081		1.76252096		1.5506380008676772		-1.8414292497716096		2.321083501044355
H		4.83846847		-1.55658263		2.36040376		-0.4409944762400371		-0.17306722464912416		-0.5851702151046286
20
Lattice="50.0 0.0 0.0 0.0 50.0 0.0 0.0 0.0 50.0" Properties=species:S:1:pos:R:3:forces:R:3 Energy=-13999.442318908052
C		0.96831422		0.54954408		0.21466023		0.25920427002811297		-0.6739477319680883		0.918814142590944
C		2.16797872		-0.49517994		0.06221741		-2.666601554080079		-2.0702013261802232		-0.002499472189247627
O		1.91520901		-1.71795381		0.14426385		0.9623750572393772		1.6019644182761914		0.07737333754273265
N		3.37293829		0.06914629		-0.24823269		-2.6467760864369145		0.6007542881932324		0.21694896154514964
C		4.63970025		-0.42093605		-0.29635995		2.2264912802037777		0.8976525240772177		0.15491184275003753
C		5.05027713		-1.75941344		-0.18762672		3.9492529108747205		2.4481363616016862		-0.0825335929311168
C		6.46528187		-2.06812121		-0.11974468		-2.743259199357707		0.9104872651751551		-0.7269729286315239
C		7.45717367		-1.07619256		-0.21070782		-0.9105337507196052		-2.3791510937290514		0.009867430984568404
O		8.7449258		-1.49874669		-0.23871701		0.8143751110128387		0.2981264518454758		-0.18548488139857305
C		7.01032287		0.23038827		-0.27991529		-0.8160062702556459		1.0043156627001792		0.0561305750144686
C		5.65123854		0.59724015		-0.35160502		0.41780626282330424		-1.265023513834174		0.9240107533774765
H		0.00345039		0.11898966		-0.16710187		0.6590671641157899		-0.12990637364651034		0.11054951525840423
H		1.16270891		1.45125559		-0.38155414		0.03994933751469497		0.510655687123507		0.029428537804704707
H		0.74988457		0.82336221		1.31904771		0.5381658220445886		-0.2597375168156641		-1.279818669640752
H		3.19501548		1.06785761		-0.30687554		0.8959020656495387		0.43362476909459324		-0.15692450227412155
H		4.39765868		-2.52274306		-0.29151244		-2.703597671126515		-2.857934306686046		0.02446620593467005
H		6.66955416		-3.12935016		-0.17987862		0.5430017584851344		-0.6656698083557469		0.1941187485271565
H		8.73957501		-2.46487445		-0.44857411		-0.04029885327313133		0.6953982396286289		0.2872040458277928
H		7.70304681		1.02693368		-0.165685		1.1676722422331287		1.0570825149218928		-0.1502608714681053
H		5.37526244		1.65568201		-0.17683887		0.05381010302459084		-0.1566265628443172		-0.4193291786246654
20
Lattice="50.0 0.0 0.0 0.0 50.0 0.0 0.0 0.0 50.0" Properties=species:S:1:pos:R:3:forces:R:3 Energy=-13999.240986264938
C		0.89669329		-0.22720089		-0.4941811		0.042410397423296435		-0.9206737186351301		3.097573099018715
C		2.30180763		0.08712261		0.07406272		-2.4492192588147077		-2.6434432168816264		-3.082149257076689
O		2.49708614		0.67892316		1.06876389		1.1759787565121895		2.7875510786237907		3.543878188757724
N		3.14151851		-0.72018986		-0.62996066		3.21315364602258		-0.6718082142159535		-0.061981017324985
C		4.55934124		-0.96282045		-0.40606054		-1.4744908738260003		1.8989184470979288		1.5480485914912143
C		5.29417011		-1.92665059		-1.06036675		-1.3357072524293558		-0.42613036344772104		-1.279597657616365
C		6.64883309		-2.05406755		-0.99439245		3.024892847427057		-1.0687122314085022		-0.04071434353768418
C		7.37544413		-1.13779751		-0.15082064		0.6960021917520414		-1.9228214271826425		-1.4479337954102678
O		8.75877034		-1.21950187		-0.09828541		-0.462454856936567		0.18047724669152465		1.1088795984679625
C		6.63432656		-0.22829667		0.55961066		-0.49588022596684544		1.418312579137583		1.3664746150518698
C		5.24631739		-0.14481225		0.53207221		-1.4120052003801835		0.28353672717836453		-0.6992303145661298
H		0.81244818		-0.0865451		-1.53217387		-0.550025549416513		0.7406455922369972		-1.9562380544623053
H		0.09277958		0.15059951		0.19687782		0.3670128350920295		0.11065858145284935		-0.8447813364908039
H		0.95189589		-1.33637438		-0.34111645		-0.7678612330064584		0.20972729851748395		-0.10898602744977431
H		2.65399706		-1.27678087		-1.31568062		0.2565025548672705		-0.3894676670541767		-0.5151449360190508
H		4.74563606		-2.54082238		-1.75248909		-0.3946539934282203		-0.8130843144013529		-0.6358912919940439
H		7.1862797		-2.93749502		-1.58054083		-0.8675323081105697		1.888753436637993		1.165021949134731
H		9.01532456		-0.96892606		0.8357589		-0.1752467487658411		-0.09272971373883149		-1.1058618433113352
H		7.08348211		0.55230737		1.17666142		0.6772293337271194		0.012110769880779177		0.2990880958352535
H		4.61630192		0.60265351		1.10154276		0.9318949382576792		-0.5818207876452333		-0.35045431392009935
20
Lattice="50.0 0.0 0.0 0.0 50.0 0.0 0.0 0.0 50.0" Properties=species:S:1:pos:R:3:forces:R:3 Energy=-13999.197057629428
C		0.86183737		-0.25422732		0.10622896		-1.3240721366261898		0.2467219243241087		0.23397418935582753
C		2.32336516		0.00021795		-0.11035672		-0.7157273863734386		0.754553871732592		-1.9406535185751397
O		2.62359051		0.97430065		-0.81237641		0.3358346616126452		0.056478033890407175		0.0821035502228921
N		3.18829479		-0.92184425		0.34625486		1.457450322240714		-2.0644904947692444		1.9934521496314441
C		4.60446488		-1.07351644		0.14866517		-1.3953611128963455		1.4042060161692018		-1.3429282983922723
C		5.12981916		-0.27827279		-0.93919117		1.070701493894174		-0.348262602774583		1.2397251960850246
C		6.52743288		-0.28311664		-1.20668831		-0.09628524082450511		-0.15607696384090866		0.5333333308822268
C		7.27053391		-1.09210878		-0.32641433		2.8332522309332333		-1.0201576174319429		0.6967790762714553
O		8.72609539		-1.11779429		-0.22261834		-1.314402629159971		-0.03666362199066848		-0.7504156812573579
C		6.70029525		-1.93368179		0.69146889		1.2913900220864867		-0.3503150115529367		-0.8878791440448605
C		5.35762949		-1.96967868		0.95162766		-0.6923016030282114		1.9063693496799732		-1.7275052645093996
H		0.6257933		-0.87281348		1.004438		-0.16566707564271302		-0.08658287466038406		-0.4005113777171666
H		0.20372211		-0.49392241		-0.81342402		1.2782532792158114		-0.330199574899647		0.8924237745016571
H		0.52057479		0.77088088		0.29131166		-0.46277413652228594		0.3543126141094472		0.46805055434973264
H		2.86186478		-1.53977679		1.11605271		-0.1872987946513085		0.3374685976468243		-0.712441773693537
H		4.45905111		0.50127938		-1.31999707		-0.1031119309905334		-0.216530951599537		-0.44410273422656715
H		7.03878253		0.36344471		-1.98790687		-0.6122987469003085		-0.590460362622748		0.7731418674430255
H		9.23082774		-1.31487688		-1.05860621		-1.048250261476398		0.3488814672961046		0.42369110649359615
H		7.32347812		-2.7128789		1.16485219		0.36941023448732446		0.5234459481374298		0.04809052986299612
H		4.91807088		-2.5895227		1.70023814		-0.5187411379561181		-0.7326977468434879		0.8216725701605478
20
Lattice="50.0 0.0 0.0 0.0 50.0 0.0 0.0 0.0 50.0" Properties=species:S:1:pos:R:3:forces:R:3 Energy=-13999.086195677826
C		0.77384008		0.15638584		-0.43909131		0.40219555310635413		1.2484494631993857		1.1762671314383792
C		2.21545336		-0.18966948		0.15129796		-0.7848676403422814		-1.250481457418949		-2.58788188409842
O		2.25636765		-0.66360796		1.24848189		0.3592542743103791		-0.0012370605562312049		2.7799080117943915
N		3.31890716		-0.30804444		-0.72947078		-2.019298677988316		0.9768292333498846		0.9834891103453423
C		4.63540454		-0.64484704		-0.42972338		-0.17263821038214833		-0.6254544645120258		-3.8463981416184723
C		5.43200045		-1.12024463		-1.53397877		-2.420497568680368		0.4469204061382223		-2.148417882702923
C		6.75176939		-1.31661001		-1.33249113		2.260501215239927		-0.7072745249046604		-0.6528749193562039
C		7.38683292		-1.03954747		-0.12565326		2.323900453047136		-1.2283711018531187		-1.4179076818178937
O		8.74905346		-1.25700339		0.01356933		-0.5722097470640138		-0.11550043143057619		-0.9928745109165543
C		6.60203525		-0.75270856		0.91480458		0.5051033385089823		0.32219696500963424		3.045604008673768
C		5.262754		-0.55235043		0.76275633		-0.31108887392446355		0.17201425507644483		0.5210338934543381
H		0.72369333		0.41378638		-1.51242957		0.10719597403401322		0.00279772015142666		-0.15171904689284854
H		0.37096116		1.1009019		0.15641622		0.5817029797001725		-1.723212190782082		-0.9342305797559782
H		0.1069904		-0.73822152		-0.22975269		0.5427428998227879		0.7654966923090656		-0.04664176467568024
H		3.03751573		-0.19428216		-1.68796852		0.33097501960131254		0.14272414546384116		-0.8168586937847909
H		5.02674151		-1.25779699		-2.65092245		0.4268123228398621		0.137637320780628		2.383856623819238
H		7.43409152		-1.83858822		-2.02179188		-0.2997983887838016		0.20850448187254988		-0.8034212346929396
H		9.02546531		-1.55250086		-0.89920706		0.06935170148961534		0.2962818910435234		0.9911329485056787
H		7.05476148		-0.78646054		1.91152725		-0.002352919311280344		0.3496040501175769		0.27261756075061544
H		4.65889743		-0.33372327		1.57387326		-1.3269836538018067		0.5820744526792726		2.2453171029530177
20
Lattice="50.0 0.0 0.0 0.0 50.0 0.0 0.0 0.0 50.0" Properties=species:S:1:pos:R:3:forces:R:3 Energy=-13999.183117783099
C		0.85783715		0.09182164		-0.27564775		-2.6206811895184345		-0.10411615244801514		-1.631916638364832
C		2.31317288		0.03882531		-0.53657011		1.0728625060684107		-0.3820067371699559		2.2979215128794683
O		2.82926921		0.77873132		-1.32866594		1.0171905644288861		0.9947848405363737		-1.9322414862239423
N		3.07133239		-0.74413061		0.35514313		1.5965084346066878		-0.4076910803418775		-0.5079836424926951
C		4.55464553		-0.96324573		0.31818649		-2.4640413083599446		-0.48761227823461817		0.2611270952091062
C		5.14271048		-2.2413194		0.50774905		-1.0828936134777405		1.4824654072699184		-0.7346747708782978
C		6.5105509		-2.35986347		0.31139791		0.4816362118255495		-0.22698212583697722		0.2515568837454679
C		7.31085941		-1.22980758		-0.05089529		2.183252473354498		-2.5616057244098225		-0.8253833918748044
O		8.64288719		-1.37205093		-0.51857604		-1.7949858199907789		2.531847468340723		0.8775636212081492
C		6.73198242		0.02645536		-0.07758165		2.2250083707669988		1.464935471916346		0.8007950071197658
C		5.39321817		0.11664321		0.11743828		-0.785556233180478		-0.9470577618107363		-0.027510289187269082
H		0.30141963		-0.87475482		-0.43471074		0.438076891261052		0.20939732314277656		-0.23188943610019608
H		0.38181394		0.86896203		-0.98689941		0.700109580411871		-0.999888685922256		0.781844897245597
H		0.51651083		0.35541785		0.71572126		0.2703783356194002		0.44585123861587295		1.1166867530986233
H		2.55067229		-1.2166368		1.08228298		-0.08603034459941618		-0.46850666804361674		0.26098655871244497
H		4.48658301		-3.10422386		0.60053137		-0.06273738444148351		-0.4648517935333		0.3948217321959147
H		6.85371345		-3.38779912		0.53423653		0.7464708891589782		0.27379044657291574		-0.5029400123419354
H		8.9878372		-2.24923006		-0.55724468		-0.0460941197106446		-1.7252618227690644		0.25940203928027517
H		7.32730874		1.00305143		0.01698183		-0.3720662354346536		-1.3328233489012722		-0.8495094922884655
H		4.9857761		1.0515156		-0.0053917		-1.4164080087887578		2.7053319316045235		-0.058656889520312346
20