20
Lattice="50.0 0.0 0.0 0.0 50.0 0.0 0.0 0.0 50.0" Properties=species:S:1:pos:R:3:forces:R:3 Energy=-13999.357109301498
C		0.80994301		-0.27144596		0.18723985		0.2953502261161511		-0.9356545595091956		0.9366069989497957
C		2.28457035		-0.03702942		-0.20683338		-1.0917351228944756		-0.9067846195688273		-0.439963720998334
O		2.42252573		0.77600095		-1.09666308		1.3281509346193006		0.7327108594694114		-0.745321143264778
N		3.25888218		-0.86398514		0.36697545		-3.371442015658922		0.4590145152707695		1.4171158334783087
C		4.60007651		-0.92948283		0.15670871		0.5383660081336857		0.8210293315814278		0.626142337441348
C		5.25920088		0.09458231		-0.49132794		1.1772401397039571		-0.3481640781029391		-1.2714356393327735
C		6.59722788		-0.1295598		-0.7324982		2.2079474560449843		1.4037667689117994		-0.17798276244233416
C		7.38984622		-1.17291342		-0.20710562		-1.309500975323621		-0.166219040060994		-0.9031964908955638
O		8.68726804		-1.32921822		-0.58853914		-0.4522089081503435		-1.5550687828782217		-0.17482848170991624
C		6.70825683		-2.12422912		0.53954737		0.4702840202099539		-0.7496015157426716		0.5903597296465438
C		5.34981899		-1.93968334		0.74549422		-0.4472116092778464		-0.9855673844211057		0.28608900982574276
H		0.22533381		-0.00481125		-0.72763771		0.039448640892671305		-0.06281426042483829		0.6692188562615525
H		0.5975268		0.3659467		1.05918638		-0.34427662160418515		0.7414309613967146		-0.08323879509548288
H		0.51151195		-1.26942476		0.62585078		0.38291438799416666		0.16512421292948473		-0.7085881529118717
H		2.91211032		-1.11212613		1.31002832		0.35074382013166283		-0.6491538646515209		-0.43344977981609417
H		4.81345079		0.93130665		-1.00163483		-0.7671026033192123		0.508330227193572		0.01315067824959755
H		7.17325048		0.65582408		-1.26951631		-0.20769720691423119		-0.20016706293395994		-0.1448266907530784
H		9.08737291		-0.55536767		-0.24965973		1.5238606303364324		1.8313940285972847		0.4220298653442589
H		7.22021139		-3.01682498		0.96589461		-0.0996810509842256		0.4301606704359463		-0.13067935008917847
H		4.80439367		-2.64708602		1.36358473		-0.22345009863384083		-0.5337664074921358		0.25279769811225755
20
Lattice="50.0 0.0 0.0 0.0 50.0 0.0 0.0 0.0 50.0" Properties=species:S:1:pos:R:3:forces:R:3 Energy=-13999.380546231918
C		0.78960676		-0.09911128		0.22178799		0.8467692620028522		0.3263311959860601		0.17279905859347527
C		2.24727348		-0.14317826		-0.25324534		-0.970251734498463		1.629409092911781		-0.4717390588888881
O		2.52251922		0.53091789		-1.22222243		0.9197703358421023		0.4410552056957844		-1.3536610598436594
N		3.18232265		-0.76874051		0.53546131		-0.9659615404066424		-0.3929863759431399		0.6454938479349598
C		4.55424482		-0.84934263		0.33363245		2.7743598797889866		-1.274559323938037		-1.1830735098897418
C		5.31482618		0.19919888		-0.27461563		-0.7373439872956753		1.745386618237719		0.9968624975473875
C		6.69799889		0.08029773		-0.45049479		1.047690892281125		2.1180719238821433		-0.9655893989407306
C		7.36546089		-1.10344773		-0.26201267		0.419623107133599		-1.5395561350343536		-0.3867825612195037
O		8.68894437		-1.3572559		-0.50186197		0.4683113156283894		0.27817366317569864		0.6798997842739954
C		6.66143971		-2.24195492		0.13070273		-0.9674603906827797		0.8317562309176961		0.8067892255168776
C		5.32529484		-2.10950515		0.51097458		-1.8787259287730347		0.3300905601272643		0.06917655794492883
H		0.60746046		-1.02740777		0.71610058		-0.9362270927524545		-1.1717125765235308		0.8637130372666175
H		0.06278239		0.09918368		-0.58867451		0.3762869583201114		-0.24036055240114218		-0.17139225380911421
H		0.68136204		0.74280299		0.9351459		0.048234408793716266		-0.08925183396744928		0.16920481069478077
H		2.72814739		-1.28020382		1.28234627		0.3964348422948037		-0.5422331529177741		0.48325384706593366
H		4.94374542		1.28169432		-0.42757237		-0.11138589510406664		-1.753488524130312		0.11338888728041108
H		7.33142335		0.98691708		-0.78774084		-1.0048594510105315		-1.0864514031341617		0.3702089733832774
H		8.88448459		-1.16588183		-1.41716763		0.29368955060950075		0.48162397337468776		-0.8923346600674407
H		7.26512005		-3.14207348		0.16061234		-0.1145269603664363		-0.7036554401498051		0.2659686880765208
H		4.80064336		-3.0280545		0.88995057		0.09557237677283478		0.6123569052529336		-0.21218666149802476
20
Lattice="50.0 0.0 0.0 0.0 50.0 0.0 0.0 0.0 50.0" Properties=species:S:1:pos:R:3:forces:R:3 Energy=-13999.14695209469
C		0.87925463		0.47239065		-0.03805932		-0.8474019076371085		-1.280759436273177		-0.23836398798260333
C		2.19282263		-0.19578208		-0.51434262		1.3003950536617956		-1.2131560334846176		-1.7341746031643472
O		2.34395249		-0.78646335		-1.61870175		-0.7399902180511401		1.1844061640600576		2.154353685637098
N		3.22998986		-0.12926946		0.43288523		0.523890389023139		-0.36557646262176274		-1.1784947351834818
C		4.65690737		-0.49678474		0.26250266		-2.9619631444720302		-2.455438294468828		-1.345596383524276
C		5.06136924		-1.75747037		-0.44949388		-3.4528267882929615		2.672548207069429		0.48698163806079686
C		6.36936254		-2.09155481		-0.53841918		-0.26584193269259465		-1.5457497681896257		-0.2964701986361958
C		7.33812117		-1.3066832		0.04804368		3.3174644823990107		-0.879341024796549		-2.5131721065461963
O		8.72015729		-1.49800395		-0.29638716		-1.612726387459047		1.7149047509058974		2.595398041277707
C		6.98952298		-0.16911262		0.6722828		-1.6863202034120968		1.6362199450825763		1.8531581079946124
C		5.6113726		0.22823305		0.87417128		2.6331310879010363		2.149040295346754		1.892470737532118
H		0.06505962		-0.17800752		-0.49358738		0.5382685119032906		0.46316252735993046		0.3521141666737505
H		0.66847417		1.4850823		-0.46504162		0.4416063987831287		-0.1804753440752142		0.3057173767035567
H		0.71814003		0.40968529		1.08652223		0.2972430208126766		0.3612531012996654		-0.8606493107861646
H		2.9724124		0.60463999		1.08121193		0.691579483005301		0.21696443958594555		0.8116817262261123
H		4.21194346		-2.23528837		-0.99968081		0.6797115281033855		-0.14074588729953263		0.3864817935762649
H		6.62463647		-3.04559472		-0.9903043		0.25972676960461316		-0.38960897488177454		-0.5102780434969133
H		8.83193437		-2.14544456		-0.96757558		-0.24156871375827946		-1.4189766436519933		-1.2498002179356822
H		7.8116317		0.34918983		1.11321247		0.7231252213870397		1.081764847785018		0.4975539626773568
H		5.3784505		1.15820233		1.56629439		0.4024972977687794		-1.6104364601742616		-1.4089116491035127
20
Lattice="50.0 0.0 0.0 0.0 50.0 0.0 0.0 0.0 50.0" Properties=species:S:1:pos:R:3:forces:R:3 Energy=-13998.886400302072
C		0.94820459		-0.18081536		-0.35288407		-1.0872075131403478		2.106897344070232		-0.9021195586417853
C		2.32992841		-0.31544205		0.25526142		-0.47567346373065394		-0.22761842243766742		-2.917037282598066
O		2.58391022		-0.3636326		1.44837156		0.16527883907125582		-0.0038227675441985277		-0.2503898086162239
N		3.19540077		-0.43329964		-0.86996361		2.3682702367378234		0.7425854895427221		3.0931625773007743
C		4.67335731		-0.45114307		-0.67866533		-4.1827157592415976		1.2860598167817228		2.0236468247445116
C		5.3195247		-1.18234847		-1.54184022		4.2851954045523115		-3.627867745964899		-4.231000715922697
C		6.69302459		-1.61361764		-1.35307666		-0.3889127715783363		1.034091710802885		1.7582944300863899
C		7.28191262		-1.21822332		-0.10042435		-1.309712371422331		1.1668749431549243		-0.8598044977222613
O		8.54828645		-1.45014827		0.22053461		1.5819658639708383		-0.45187116804420696		0.8601721654687408
C		6.56598868		-0.36673176		0.81799818		-0.047929938761981435		-1.2866926681042292		-1.0405361293566997
C		5.26947971		-0.05401924		0.51084275		-1.4451570040382564		0.6159552669166236		0.6684240254423455
H		0.18593682		-0.16252822		0.39696533		-0.9235678037315782		-0.5029787845770186		1.0625756767425438
H		0.64272454		-0.81610847		-1.20593132		0.3649837205079631		-0.6229607001717095		0.28746228742538993
H		0.74831906		0.85318847		-0.83711946		0.784413223576458		-0.7476545221923294		0.5996768417188295
H		2.86871674		-0.12500585		-1.77585001		-0.3101762351601957		0.05268771366761123		-0.3051246860118196
H		4.74986979		-1.50012831		-2.42273972		0.17322776432807638		-0.3454469363233632		-0.3408137570750368
H		7.37899932		-2.21898488		-1.99148005		-0.8642686526513322		0.22155087617950966		-0.23184727000899147
H		8.93230631		-2.24433196		-0.18731157		-0.19485588379230073		-0.05026892269433928		-0.36007733584186824
H		6.86410427		-0.16140935		1.83185792		0.9232014729587225		0.15468964801821417		0.5674133027674257
H		4.51789837		0.31272767		1.21958322		0.5836409743895868		0.4857897260753921		0.5179230129426234
20
Lattice="50.0 0.0 0.0 0.0 50.0 0.0 0.0 0.0 50.0" Properties=species:S:1:pos:R:3:forces:R:3 Energy=-13998.95764398138
C		0.89307261		0.39531817		-0.01852092		2.447878685646776		3.560690734918132		0.8742353796384812
C		2.22789567		-0.20806044		-0.57917947		-0.49009447261088446		-1.9722268191823487		-1.9161438095756418
O		2.30401152		-0.70992674		-1.7588548		0.27410664083488795		2.0169951238569825		3.659593101610757
N		3.26912381		-0.21499204		0.40342918		-0.028854307633385177		0.3814512246293662		-3.781803957924175
C		4.66724676		-0.43534701		0.14588808		-2.582996325367615		-0.4301058030953178		5.206122428267045
C		5.39886066		-0.73052085		1.335711		-0.3536682956670156		-0.5985094580572109		0.7497842697526
C		6.71534142		-1.21866216		1.33711326		-1.4925539531229988		0.5809400819817435		-1.2401729279827303
C		7.33604298		-1.27568778		0.06274193		2.4667761907510637		-1.4943672493109847		0.8927404315621914
O		8.60526932		-1.85660098		-0.19260381		-1.164612115297047		0.6235222290936051		0.9898141782922231
C		6.69444332		-0.83891546		-1.05728782		-2.3950990293315133		0.24437394153082304		0.024125226238599504
C		5.29624487		-0.50907557		-1.01099407		3.1343800857194792		1.0031279673238946		-4.238078088643142
H		0.68919392		1.41245551		-0.62095261		0.32185053457494456		-1.9411114834632721		0.9556800589752698
H		1.11745297		0.78689705		1.08167526		-0.6611446154385543		-0.697057269629281		-1.7360252831917309
H		-0.01169886		-0.17586394		-0.02453935		-0.8171794646103208		-1.0386362898376194		-0.2810905282458096
H		2.95343601		-0.24884396		1.34483473		-0.17500995016828344		0.2504315119088665		1.2333188812794813
H		4.82622523		-0.74056528		2.30605593		0.44633234343210515		0.05052911833030926		-0.5582804359448793
H		6.99559443		-1.69367839		2.25918544		1.0407295277335538		-0.20188538257261074		0.6612086873283604
H		8.96044961		-2.13872045		0.67456563		0.049505767865598065		0.03975223674934458		-0.16336809807493713
H		7.23424087		-0.96589959		-1.96948522		0.3830973476923447		0.17838848251502254		-1.174586041372938
H		4.87758768		-0.07298675		-1.92757927		-0.40344444073694763		-0.556302897689445		-0.15707357483314863
20
Lattice="50.0 0.0 0.0 0.0 50.0 0.0 0.0 0.0 50.0" Properties=species:S:1:pos:R:3:forces:R:3 Energy=-13998.934525499144
C		0.74604874		-0.22413735		-0.46438721		1.1153878318012709		2.491826037094481		-0.7403160282387894
C		2.2593432		0.09003974		-0.39538441		1.8459702292619729		-0.9570288082511307		1.254397144629985
O		2.74431915		1.20899467		-0.47024703		-0.9100657585292964		0.7284946617254487		-0.36866816270418556
N		3.14452799		-1.00027976		-0.1131376		-0.9290878592908876		1.0899917607114142		-0.2626790644757485
C		4.58851911		-0.97323344		0.05781899		-1.8663799029565713		0.4502109039140562		0.7514472592520602
C		5.17662573		-2.11134244		0.71079637		-0.6327536205877955		0.7384038474247223		-0.935134528191693
C		6.55793618		-2.24257982		0.59316064		1.1065778441088145		-1.6794911478311965		0.30282946225460206
C		7.34489299		-1.26818487		-0.13251383		-0.0604159354324193		-0.21199172045929704		1.3984490077461473
O		8.73973713		-1.5205691		-0.10135067		-1.6201293132568302		1.8060246455578368		-0.8939874165764744
C		6.71118244		-0.04670657		-0.60218703		1.1238151365050142		0.09310329502249193		0.19903053250980804
C		5.31876658		0.1927798		-0.34476203		2.0331424742176054		-4.161947519505573		-0.5524693315121331
H		0.28288029		0.82526385		-0.39332981		0.13475717106310253		-1.399775645535157		0.12963393955967853
H		0.35607827		-0.9669993		0.19987881		-0.3171320461250225		-0.594339951545948		1.2261127991367364
H		0.54366311		-0.60867002		-1.45472535		-0.29025661372069517		-0.19616915184507489		-1.057068219588533
H		2.6247146		-1.85953655		-0.25481846		0.5944325112583483		-0.8772970492364363		0.3647901678649215
H		4.4951114		-2.86173126		1.20715442		0.7087252441303491		0.45028289480147876		-0.4449009589018956
H		7.03511645		-3.24883556		1.03970728		-0.559704775652534		2.3229190629853793		-0.9282332760351197
H		9.06460426		-0.61891866		-0.36504432		0.4098514240293026		-0.847917362391054		0.13295811878641361
H		7.32978949		0.74225722		-1.21681618		-0.9110133128739639		-1.2571936306519131		1.1808396326530206
H		4.78420727		0.87998549		-0.91425477		-0.9757206251056401		2.011894826593409		-0.7570311810129258
20
Lattice="50.0 0.0 0.0 0.0 50.0 0.0 0.0 0.0 50.0" Properties=species:S:1:pos:R:3:forces:R:3 Energy=-13998.872086027512
C		0.88729502		0.0142772		-0.28037495		-0.19258940496798982		2.4420011953314136		-1.0246222865816383
C		2.34864119		0.12177223		-0.02552476		1.5608215746921557		-0.985718565284693		-0.6032279979291953
O		2.87505018		1.22152293		0.16806263		0.14241761854960852		-1.371385422015335		0.07159663446976189
N		3.10746941		-1.12533888		-0.29983399		-2.2186258129543046		3.7355975324291513		-0.030738514845482436
C		4.44068455		-1.1476674		-0.51608319		4.4852325239344735		-0.22670418958946384		1.9329378952156306
C		5.15638087		-2.28385511		-0.02399873		0.6269199418696362		0.041883424127363546		-0.9822196538897708
C		6.54501547		-2.42467015		0.09522415		1.0138995010103653		2.610840189473963		0.6730903204988862
C		7.31801766		-1.22486139		0.06696913		-1.1347872162350188		1.2716859619327543		-2.0144755970633814
O		8.58036097		-1.12820558		0.56177879		0.6606530719436458		0.6848160933981422		-0.6355536547320322
C		6.69148573		-0.07699459		-0.61901233		2.3562818513656625		-1.4706160671546078		2.065222487828144
C		5.32331057		-0.02962565		-0.77287312		-1.1816706646041888		-0.252942296951852		-0.9596456255868772
H		0.69570042		-0.69204133		-1.08250676		-0.3450744349030141		-0.3244702315461878		-0.5887753644805614
H		0.65520748		1.12174415		-0.58278184		-0.04227109505613385		-1.7769874810703978		0.08458589886534568
H		0.21495609		-0.17350977		0.53093457		-0.5151943526210601		-0.4778356586123271		1.3088498177468844
H		2.68509206		-2.02673147		-0.36375063		-1.059318963261736		-0.7227204783335378		0.06382280133556542
H		4.69142128		-3.17667303		0.31483651		-1.4323758961514486		-1.1353449399242934		0.2159059678525846
H		7.06895308		-3.27514785		0.49848258		-0.08906136664815426		-0.9987990009969911		0.30790507692820235
H		9.01149985		-0.2534583		0.26864103		-0.9677529307960271		-1.430043082866584		0.45196367633454493
H		7.44190487		0.7614089		-0.7617134		-1.15373526922669		-0.2035680152999249		-0.18435997236053367
H		4.93154158		0.88792098		-1.18534578		-0.5137686245177194		0.5903110843754711		-0.1522620124502017
20
Lattice="50.0 0.0 0.0 0.0 50.0 0.0 0.0 0.0 50.0" Properties=species:S:1:pos:R:3:forces:R:3 Energy=-13999.264767142999
C		0.78923008		-0.49398357		-0.17957271		0.6239819937539228		1.3145169404047854		0.5751824564939397
C		2.29662015		-0.0143824		-0.17727822		-2.038663661062288		4.880787226208475		1.085255480227886
O		2.51618748		1.26257353		-0.17789346		-0.021120378019645746		-3.9365586034293187		-0.5610107931945034
N		3.17360065		-0.99357945		0.0115897		1.6355067724985313		-1.3161545788274607		-0.09979993879259767
C		4.63085157		-0.96487943		-0.01468162		-1.9094670147216393		-0.7732663602562041		0.7690780332700865
C		5.27498484		-2.07396273		0.65608845		-1.4449846372849418		-0.499335377186627		-0.6492443160593612
C		6.62694608		-2.24006677		0.46970229		1.949516676680164		1.6648901103103475		-0.390752395862294
C		7.36202701		-1.13689464		-0.20235817		-1.2189759825121045		-1.8066267979090636		0.6792469811912605
O		8.69463196		-1.27689621		-0.29773208		1.2820304353906216		-0.3189475534616937		-0.23209198760416558
C		6.68924612		-0.02779196		-0.74799361		1.3849715937117764		-0.7079104615509135		0.6898278932922486
C		5.33216162		0.06922309		-0.67856672		-2.6095668763637083		0.3391110697433692		-0.5909826565109985
H		0.42841866		-1.03595498		0.74643453		0.5616618479271153		0.19055987900742397		-0.45662662895702677
H		0.60603465		-1.12838829		-1.0609975		-0.3653478401321337		0.04358467164128271		-0.24441631331027747
H		0.2722609		0.51325965		-0.18454474		-0.06005505539818267		-0.9882011196153964		-0.3836297203048342
H		2.6679866		-1.88449795		0.16621149		0.9600578248394335		0.11612433531421724		-0.08303840331813604
H		4.70447682		-2.96277026		1.14892474		0.4829472687296386		1.656098994514808		-0.6774247889864715
H		7.16208598		-3.12697887		0.90529538		-0.11593967868797846		0.7216999560822611		-0.4447485439088097
H		9.00977897		-1.0618444		-1.20133558		-0.1870764970753602		0.2209272294061809		0.34155084091811855
H		7.24569585		0.81313677		-1.13481992		0.6083864535453939		0.36110495433776235		-0.5094027885720428
H		4.79265013		0.91271802		-1.25259142		0.4821367027593234		-1.1624046690004224		1.1830276928321035
20
Lattice="50.0 0.0 0.0 0.0 50.0 0.0 0.0 0.0 50.0" Properties=species:S:1:pos:R:3:forces:R:3 Energy=-13998.936217382077
C		0.82920279		-0.12738119		-0.6519701		3.5264016809270324		0.7279783327964421		-5.831567996762268
C		2.149948		-0.50349285		-0.05079585		-0.2935429977315335		0.16958805932618085		-0.2867949318989831
O		2.20133037		-1.41962916		0.73674347		-0.04235655852391688		-1.5275925350962911		1.2762762551810016
N		3.29347026		0.10203539		-0.50698504		1.7597307511345945		0.05634176542492882		0.3834941203261677
C		4.63710554		-0.34706843		-0.18854273		0.44087990788491044		2.617804073702594		-1.4195974622118879
C		5.7041447		0.59241492		-0.69308111		1.1938544023915771		-6.056636656233616		2.679927375874363
C		7.08239487		0.15520971		-0.65556548		-1.6850318750596087		1.131674484529056		-0.0020963232196814863
C		7.41845195		-1.05724437		-0.05592115		-0.9338653802684961		-1.1593877880188568		-0.4215758085328726
O		8.7058667		-1.49439904		-0.27735252		0.13070938057364617		-0.6033730081452893		1.7875610912385191
C		6.36024144		-1.88231794		0.47980531		0.07557371962335685		1.2179493924574591		-0.09422244478953753
C		4.97665636		-1.5667353		0.44846311		1.1215028406230652		0.9232321205079396		-0.5827474646325485
H		0.55349372		-0.89575836		-1.45912145		-0.1571796071259095		0.4868499975809385		1.3325992001310756
H		0.95321297		0.81878478		-1.30533774		0.030479964715510687		-0.8233474895784956		0.49668914643116246
H		0.14132373		0.18803072		-0.00277179		-3.5913276911902856		0.5266759735678289		3.3685119865408244
H		3.29996596		1.06104558		-0.86523234		-0.42852981972551385		-0.21428483591195424		-0.24861240502782422
H		5.60291956		1.40848519		-1.28459889		-1.3410525243984162		3.2159660728838655		-1.8780515798461352
H		7.8876245		0.77964044		-1.12322516		-0.48594090693897934		-0.36792326270761216		0.2800840956396426
H		8.95534146		-2.0643986		0.50824101		-0.1864467824986629		0.43968269942707394		-1.0178046466986002
H		6.56833442		-2.77115623		1.03950986		0.689149224912104		-1.1120764052460224		0.30705938968923746
H		4.22108849		-2.25635655		0.86356513		0.17699221925346267		0.3508789573117673		-0.12913164885371908
20
Lattice="50.0 0.0 0.0 0.0 50.0 0.0 0.0 0.0 50.0" Properties=species:S:1:pos:R:3:forces:R:3 Energy=-13999.205604167015
C		0.94874022		0.596892		-0.14333099		1.0114827669195912		-2.3000637560009136		1.097087491108153
C		2.24418346		-0.37985749		-0.15695478		-0.7584635939843845		3.27132058613192		-0.13722080207482623
O		2.22129704		-1.55546858		0.05664269		-0.2747197460854156		-1.703560324021731		0.5913606600920291
N		3.40933513		0.26799737		-0.60298129		-1.1869746446571061		-0.1928733061747468		0.8693303319460096
C		4.6468309		-0.31048272		-0.30359429		2.1908188184667305		0.1996661092016241		0.1604267046810401
C		5.54219144		-0.46241976		-1.38595823		-1.707104795363979		-0.016676843337615276		-0.6898549927191567
C		6.83414346		-0.87313721		-1.27575994		1.318665363870446		-1.4319536695967152		1.9169972101239727
C		7.33500025		-1.27558386		-0.01570867		-0.8976612144057707		0.5183033305164642		1.1336537711346137
O		8.51460771		-1.8935241		0.26415424		-0.20449006430162014		0.5757611089626296		0.12888235469498738
C		6.52396546		-1.06438139		1.09927667		-1.5005474613079588		0.2672233864001705		1.2302067152162057
C		5.17482233		-0.57141347		0.99282678		1.5870423013974377		-0.2601089897947644		-0.8534613292094
H		0.94473603		1.51626052		0.46355472		0.6562892414584046		0.3464364510709858		-0.3064148655585561
H		0.09507631		0.01137164		0.2641684		0.1659270141683708		-0.13537644696112355		-0.3998258187806544
H		0.88332595		0.6924418		-1.20985134		-0.8009220196140041		0.8897505985854716		-1.1478118075875021
H		3.43163678		1.27690222		-0.76896796		-0.3247735188704864		0.018596480350736907		0.0504330104956002
H		5.10209849		-0.40283414		-2.38889416		-0.02170232150033197		0.35859787168327295		-0.1964957847857234
H		7.42934313		-1.25184619		-2.0593666		0.8153125866332672		0.027239294918185716		-2.007503176772385
H		8.72853152		-2.36039307		-0.53405389		0.8717965340608558		-0.7244568471161067		-1.1361058321822872
H		6.94114726		-1.38143757		2.09672983		-0.38618123162127593		0.33914511114870755		-0.6358854813009875
H		4.64320957		-0.36825832		1.91577786		-0.5537941181068949		-0.04697024881057673		0.3322016929009298
20
Lattice="50.0 0.0 0.0 0.0 50.0 0.0 0.0 0.0 50.0" Properties=species:S:1:pos:R:3:forces:R:3 Energy=-13999.29147251409
C		0.81649378		-0.54353935		-0.50423239		-0.024089745015512688		-2.1506551023737033		3.5141467235831585
C		2.21901093		-0.20449214		0.1425727		-1.3986601981566076		0.4294123765832516		0.4175766118924265
O		2.40588254		0.18916639		1.28539922		-0.23923548909691544		-0.19623949722649917		0.2780296299787911
N		3.24307299		-0.44266254		-0.73611872		0.3746918973651404		-0.3237588073122659		0.5492927336046142
C		4.61407164		-0.68628649		-0.40835123		-1.8946813205745512		0.09858498972321768		-1.5000894964198268
C		5.36273434		-1.14360896		-1.50598039		0.6074326257091078		0.9363714344817367		0.5226996083231079
C		6.75788453		-1.15743299		-1.40436544		-1.6182350273204937		-0.7722104596259655		-1.104078731874004
C		7.39571324		-1.03731968		-0.19040399		2.0240418490282117		-0.507693724904632		2.098256637807343
O		8.73461887		-1.40651448		-0.04933902		0.13187259904820683		0.5819916117366745		-0.1899528929823272
C		6.63615989		-0.74734496		0.92754211		-3.101180408121271		0.6333132468933809		2.4466948469251752
C		5.17951705		-0.50595749		0.82882879		3.2184876051379026		-0.34483167134621284		0.46863337200548044
H		0.85378468		-1.67994938		-0.54781366		-0.0903514433507659		0.6672534021907925		-0.23834876705211966
H		0.87664947		-0.19288776		-1.47707418		-0.5517055596186425		1.0216710715738144		-2.6877318051357144
H		-0.18865103		-0.36539551		0.06564727		1.8583251510952394		0.4778202834156561		-0.7291579549089224
H		2.97256325		-0.61965587		-1.6974853		0.09838336381637215		-0.22165917104301813		-0.2788540799059664
H		4.79355143		-1.35177754		-2.42300724		0.4377894933540488		-0.0055980114059755535		-0.3122556405213328
H		7.23839234		-1.42996404		-2.30807246		1.306944321800935		-0.4186416142277178		-1.0539691147291181
H		9.17200352		-1.09627789		0.79707516		-1.1311155781323452		-0.1817023773292687		-0.9135865757228196
H		6.98409254		-0.76700133		2.02744208		0.15109617145045637		0.10444623066684744		-1.622449322448146
H		4.58183943		-0.2272731		1.68880368		-0.15981030841851593		0.17212589237401218		0.33514421758020074
20
Lattice="50.0 0.0 0.0 0.0 50.0 0.0 0.0 0.0 50.0" Properties=species:S:1:pos:R:3:forces:R:3 Energy=-13998.917707627903
C		0.88346189		0.01874401		0.33018447		-1.9818896417804497		2.816523142780174		0.44145300677085625
C		2.2952817		-0.18681035		-0.22256073		-0.850102697200827		-2.1519416309540067		-1.1514985123544723
O		2.45655108		-0.6891713		-1.35025323		-0.2210378382624993		1.1749905787381905		0.7974783355141476
N		3.29663467		-0.19545702		0.69770095		0.6462572084519508		1.248230919433996		1.4391609344468967
C		4.64700602		-0.49602241		0.37108926		-0.05388847024775651		-0.27844445175653215		-1.301105963675093
C		5.1735456		-1.73838912		0.71666814		-0.008398816881148893		-1.874566500986011		2.36150443029373
C		6.50060292		-2.12337468		0.29436761		-2.277168905450427		0.4017115172325625		0.808762032942567
C		7.27557427		-1.21604982		-0.44569435		1.5903609270414285		-0.7573040264762572		0.8963706749045971
O		8.63921571		-1.4343941		-0.56559556		-0.4632500477102113		1.5914942178756468		-0.373522919619586
C		6.78589678		0.05019		-0.74672598		-1.9540300425229942		0.15515131529484233		0.27030685895260215
C		5.4278776		0.34040736		-0.44306065		0.5762200508699481		2.327698897955798		0.08697471077621237
H		0.63766612		0.65069275		1.29442331		1.1822129616747303		-0.9286546284147913		-1.0859393936584
H		0.38571288		-0.93854621		0.51831286		0.05023282440650312		-0.5539853053350641		-0.1350703314233905
H		0.18733589		0.59313718		-0.40445496		1.1506406380867078		-0.987993837281682		0.447969364790031
H		3.16325643		0.28054736		1.60487768		-0.2167594712450411		-0.173934766264628		-0.3500052450487701
H		4.51394578		-2.31468582		1.61535004		1.8497021854438942		0.9326302223285755		-2.657232659990912
H		6.90862923		-3.06158099		0.67623789		0.2598789274873869		-0.22279930101154113		-0.04555819897584634
H		8.88803504		-2.32999484		-0.7750677		-0.1843894372023145		-1.1573137819742765		-0.056488523991145886
H		7.39572722		0.86940709		-1.0934551		0.6389452482826322		0.2053380141113326		-0.5965396331111431
H		5.07839973		1.43079202		-0.66287752		0.26646444818054976		-1.7668306467183912		0.2029810324571191
20
Lattice="50.0 0.0 0.0 0.0 50.0 0.0 0.0 0.0 50.0" Properties=species:S:1:pos:R:3:forces:R:3 Energy=-13998.730516475202
C		0.78948865		-0.04554352		-0.69776314		0.7896979717780208		-0.6867172184687838		0.9596574012391769
C		2.24286575		0.02621946		-0.16272758		0.01290729762804697		4.8386940514884		1.7892974085990254
O		2.57390151		1.05607765		0.51998914		-0.5487123842078637		-2.4135146582886327		-1.4203926015634696
N		3.16206247		-0.93770144		-0.45793927		-1.6898787643994553		0.04559630272411784		-0.8282376248728577
C		4.52771131		-0.95104018		-0.20315365		0.8526069002198197		0.025674418713869798		-0.007079275336756451
C		5.12662518		-2.1765868		-0.14818211		2.3819200689475717		-1.6097817030531536		0.8135237673470049
C		6.5420026		-2.38469342		0.09279185		-3.4242402867607886		5.2364696212173225		-1.722957394462669
C		7.39278239		-1.25154012		-0.01200584		1.614591054287415		-2.0594741697336425		-0.29154936437055395
O		8.78291127		-1.406443		-0.28875104		-2.0362194675901693		0.8817491199808326		1.08696418394086
C		6.82289939		0.00071359		0.06957806		-1.0832980994209302		1.2864843573292661		-0.21879640198259898
C		5.40057021		0.10760954		-0.04711864		1.5329169297079988		0.888961732725508		0.25004697772590534
H		0.73075093		-0.41611188		-1.68397821		0.1479689387228843		-0.9738270590781779		-1.9438274939574736
H		0.09662141		0.8020426		-0.71778192		0.7616401918919034		1.0507215029533634		0.4930837399449175
H		0.24628671		-0.75436067		-0.08958085		-0.4664870151190403		-0.9458247121753757		0.6036636456422265
H		2.79267637		-1.70794036		-1.01980119		0.2218396624821989		-0.21900039330431695		0.0417774432566651
H		4.41896632		-2.97633789		-0.30090895		-0.007822786937643801		-1.3044356964845722		0.23995976884644846
H		6.81228455		-3.32512709		0.21391471		2.05164150976001		-4.95638804525874		0.356848184586531
H		9.03992008		-0.45387994		-0.25590326		0.5421130309799033		-0.5459129671283763		-0.1566424522616126
H		7.51940942		0.90110926		0.16456378		-1.0313293690304204		-0.670953219583686		-0.24762278743607674
H		4.94768511		1.04983265		-0.08608742		-0.621855331517399		2.1314787868468406		0.2022829265373704
20
Lattice="50.0 0.0 0.0 0.0 50.0 0.0 0.0 0.0 50.0" Properties=species:S:1:pos:R:3:forces:R:3 Energy=-13999.168459300672
C		0.90205305		-0.1543886		-0.54092237		0.9225828655475131		-0.7214172375829403		-0.3795359070694899
C		2.33961504		0.0516128		0.03419046		-2.5131329743566755		-0.2645453253880526		0.2394857602748336
O		2.55046064		0.56008262		1.11417261		0.3665530190096494		0.8024253950316363		0.9398530680636775
N		3.23201612		-0.65694419		-0.68176579		0.15194520112348017		-0.8947047543475775		-2.457541199712502
C		4.557598		-0.95489556		-0.40657853		0.625250164657933		2.991804961392603		2.1636523886110286
C		5.23664886		-1.86376149		-1.18007214		-0.029877246721596813		-0.4704970618146623		0.8517501572374291
C		6.56983941		-2.07410937		-0.88642259		0.005376690849213732		1.4029431931596859		-0.04708682262613878
C		7.31893013		-1.18969013		-0.09533029		-0.2869545459808113		-0.34656711453165767		0.29246205455688423
O		8.67904836		-1.39343011		-0.07731786		-0.3923250882201015		1.9408578184292327		1.0077626378120321
C		6.68100644		-0.13813881		0.6458477		-0.3489960356512312		-1.9003970370814625		-0.148304724790648
C		5.25624201		-0.1073684		0.56929442		2.0033448288486726		-1.1814864707765123		-2.1517527577186475
H		0.87559899		0.11982017		-1.61120789		0.26477420498799376		-0.8519751287606245		-0.5492042876572093
H		0.12623067		0.52496007		-0.22962109		-0.44999287436929086		0.532251513532516		1.36179129929266
H		0.66025077		-1.24577331		-0.29390033		-0.1571779616199113		1.0983847154774444		-0.6306120459531628
H		2.95903252		-0.92229675		-1.65745342		-0.07165160465451524		0.09119918747222859		1.0395252744531625
H		4.68141245		-2.4431039		-1.90909209		-0.08412916810671218		-0.4649389539291437		-0.4695053359183545
H		7.09142489		-2.75800472		-1.47767571		1.3065455437066766		-1.5975224262560344		-1.0414452199986588
H		8.90210796		-0.53428983		0.39289457		0.8349014613671237		-1.195986052568158		-0.4495063702365019
H		7.32028641		0.44121176		1.37621509		-0.7596642477204049		-0.015923201590426327		-0.6221088937073137
H		4.83447034		0.79277308		0.91069827		-1.3873722841190679		1.0460940315539684		1.0503209765089818
20