20
Lattice="50.0 0.0 0.0 0.0 50.0 0.0 0.0 0.0 50.0" Properties=species:S:1:pos:R:3:forces:R:3 Energy=-13999.000361982027
C		0.9140171		0.41284822		-0.13686356		1.7610130631057772		0.029391153965307438		0.9196955681633079
C		2.30216306		-0.31577962		-0.51753859		-5.456662646415919		-0.6531710590138228		-1.2320980700949826
O		2.07879722		-1.20177692		-1.35043925		2.3192726731153663		-0.13302239636446944		-0.14669680832006587
N		3.33948745		0.02726497		0.2420387		0.18122991141952716		1.235564842700877		1.0621945878377663
C		4.66642087		-0.36977552		0.16947311		0.9456099222205445		1.8168472927743768		1.2499632772956941
C		5.62562521		0.09577244		1.09426506		-0.7135918795421743		-0.40566355984174696		0.13034968324684573
C		6.90775232		-0.45498731		1.0929001		2.48772872715889		1.0964535085002727		2.791968850852536
C		7.36876751		-1.22846433		0.04374222		1.1288687425358883		-1.9803139669430205		-1.5022641354406114
O		8.61988246		-1.89557095		-0.14717449		-2.8151297591541113		0.9302845021060374		-0.9507539796592586
C		6.44555467		-1.54360264		-0.9841174		0.7464517601517489		-0.014865758298314321		1.5909411735940542
C		5.14691607		-1.09793407		-0.87408478		-0.5885984725857517		-1.5619187158164751		-2.194611195572024
H		0.98802398		1.51531499		-0.29577132		-0.12857747328675298		-0.10075752043944217		0.22633071114992825
H		0.79494629		0.18336126		0.9865509		-0.5553038698602701		0.3472453201132404		-1.2220238195752617
H		0.15099172		-0.01090625		-0.83562342		0.23829806489854927		0.060860993382877836		0.6992207500625152
H		3.02118748		0.71691684		0.95226302		0.872330243646969		-0.39352137108081414		-0.2905618550833667
H		5.32994426		0.86786231		1.80529649		0.007262440723184333		0.0022991832560256735		0.6204792771263798
H		7.6213212		-0.26316291		2.03793022		-1.3225665500598727		-0.08753824515854342		-1.9740583187804401
H		9.17203674		-1.80649777		0.60459023		1.1027230920417754		0.40018155660864657		1.8176298851427224
H		6.74908737		-2.40252733		-1.56070765		0.07831929780346464		-0.166592569922592		-1.2295490784596008
H		4.41569593		-1.37972462		-1.6272209		-0.28867744218301966		-0.4217630362622336		-0.3661565034861385
20
Lattice="50.0 0.0 0.0 0.0 50.0 0.0 0.0 0.0 50.0" Properties=species:S:1:pos:R:3:forces:R:3 Energy=-13998.987412777598
C		0.90477792		-0.07931359		-0.14398703		-0.39895997409321127		-1.0450360740412319		-0.3102686406064087
C		2.3621677		-0.18774563		-0.5696614		-0.3948273372007211		-0.004092476261720773		1.8420845211133423
O		2.68075621		0.06212169		-1.71522161		0.8781745667320542		-0.26308900115755735		0.05294271567527431
N		3.28051152		-0.33434761		0.58068346		-2.1575053438443312		0.4747017410166373		-4.038546139602437
C		4.61954431		-0.6014674		0.26931803		-1.1411490509565474		-0.24325700291246258		0.013952142514860036
C		5.49074067		0.07126488		1.10364853		3.2796502917611434		-1.8341300936958402		-1.2127641973687893
C		6.85634058		-0.34251671		0.96358814		1.0669730858345612		0.1043652409184971		0.8782006891397764
C		7.25030608		-1.36549752		0.02936772		0.24042524135569757		1.9551682184531443		0.05211903707903573
O		8.59898588		-1.61802442		-0.1589077		-1.7473378798192438		-1.2722155063318092		-1.0763957159789834
C		6.27962629		-1.85927641		-0.9043665		2.4857439898147136		0.30108548300679144		2.2864884857817103
C		4.97694662		-1.54548241		-0.74578563		-0.16060652763340907		1.6961908739865992		1.113688589747787
H		0.56375892		-0.74594348		0.69577557		0.21744220196811886		0.611512657831717		-0.2831695222304471
H		0.15781656		-0.07309035		-0.97449166		0.5529019967455424		-0.82430969921096		-0.1316884566425925
H		0.85703563		0.9679285		0.05159119		-0.26604031900950625		1.5309652053279112		1.3054281937118166
H		2.91685428		-0.74994923		1.41497217		-0.5324870265785125		-0.3212449369455338		0.8113258855539951
H		5.20748348		0.86896801		1.76090301		-0.4493782264568898		0.5178142038584906		0.6341557973865365
H		7.69281016		0.12035049		1.64646287		-1.3244792450945642		-0.6568049533226621		-1.1190490312252683
H		9.07537912		-1.14031618		0.50293204		0.7738136452668025		0.8093383714184467		1.121382770107257
H		6.59064687		-2.60358181		-1.57742282		0.6232812653089894		-1.1200236849968446		-1.5426901554741683
H		4.36535092		-1.88736792		-1.54532917		-1.5456353026786238		-0.4169385669416131		-0.397196968682296
20
Lattice="50.0 0.0 0.0 0.0 50.0 0.0 0.0 0.0 50.0" Properties=species:S:1:pos:R:3:forces:R:3 Energy=-13999.13933539846
C		0.80487577		-0.34012614		-0.10270619		1.3097996346622995		-3.3069388490151503		1.0305622547028708
C		2.23662023		0.12386324		-0.12021522		0.9410853463681013		-0.007254470303505411		0.0684651851330694
O		2.59804704		1.18551381		0.36464851		-0.009960144963156127		0.41254573441315306		-0.13532044833512133
N		3.11566467		-0.84593861		-0.62710137		1.154138778150693		-0.05404962699145807		0.898790031520556
C		4.5424873		-0.97130852		-0.40516446		0.8834304157345231		1.835307298971386		0.08091724324229377
C		5.26436325		-2.11346049		-0.78071981		-3.1146352992922908		-2.1990398178559456		-0.7284917306678894
C		6.61367462		-2.3179286		-0.53689159		-0.666801505106029		2.3755016185352913		-0.4881599746217163
C		7.36968089		-1.19101053		-0.12490572		2.0402664353266258		-2.4499682725762773		1.573031332043141
O		8.6902532		-1.51827597		0.38034268		-2.041606751384246		0.6391201347170066		-1.5533711863307362
C		6.76107397		0.02969751		0.1544224		-1.646023098489089		-2.313548780500526		-0.7330707110623993
C		5.37164643		0.10049797		0.09966308		-1.4483740196868566		-0.7919514922425954		-0.47944676325078084
H		0.64545216		-0.58078356		0.99604848		-0.07398092123913348		-0.13179680292816337		-0.6750333031283577
H		0.6492262		-1.30962282		-0.71656777		-0.16705053481072418		1.3814513421609398		0.6595420468624664
H		0.12454636		0.42630886		-0.27860017		-1.616766258950887		1.8439276420975461		-0.9060050611021662
H		2.66117926		-1.74243145		-0.56279099		-0.19023550863752306		-0.8520653230581525		-0.5123820800259615
H		4.57118355		-2.99007694		-1.19587442		1.5810195437556693		1.3535230944501204		0.5820475075185517
H		7.00005979		-3.21417327		-0.928368		1.227125196702147		-1.574523034652598		-0.08882935030240395
H		9.12155272		-0.65638754		0.424685		0.5685366177215294		0.42777252701189133		0.22221463216154536
H		7.32289125		0.79031946		0.56171759		1.458624339348388		2.2725601002596996		1.1857776933095816
H		4.81709653		0.90003944		0.55576639		-0.18859221378797905		1.1394269260852758		-0.0012373690886058727
20
Lattice="50.0 0.0 0.0 0.0 50.0 0.0 0.0 0.0 50.0" Properties=species:S:1:pos:R:3:forces:R:3 Energy=-13999.045747945715
C		0.86373519		-0.4335832		0.03512104		0.5207179563026781		-1.7290381047688126		-2.0106762265575955
C		2.22074946		0.15608434		-0.23734504		2.409301802978729		2.0161636291072527		0.8940598702624588
O		2.57246817		1.35044806		-0.09062516		-0.8883274930073155		-1.8231933923447974		-0.20404459497466204
N		3.20029681		-0.83288036		-0.53928371		-1.1607674419542469		0.4152371651615065		0.2667184731690264
C		4.57328027		-0.87390363		-0.28264436		0.3760038798663535		-0.41620950494027265		0.2723998911602872
C		5.13693344		-2.21772346		-0.34538085		-0.3117545325228096		1.4370858485390048		-0.8889252744832349
C		6.53101284		-2.41303317		-0.28498851		-0.9409241896243997		-2.5519791543657453		0.4408266346282178
C		7.29295909		-1.29966842		0.06975842		4.410250106607169		-3.084487418256048		-0.737563559502314
O		8.73467127		-1.49791887		0.2195307		-1.959173380052834		1.1520235830340944		-0.45132424298804547
C		6.77486079		-0.0773433		0.00329706		-2.152041081222774		3.3740809444815185		0.6100074312198369
C		5.39348116		0.25046836		-0.01691848		0.4434315220454769		-2.247551134455926		-0.6425860331478391
H		0.08122095		0.19588322		0.4636381		-0.03930897857107161		0.5172418763034815		-0.13647636487681486
H		1.0796144		-1.30389436		0.70344928		-0.5028264724280576		0.1395715616594839		-0.17074351306931237
H		0.60251093		-0.85811231		-1.02791691		-0.35286755131062725		0.40742769653803595		1.6587051674836284
H		2.87348248		-1.76664352		-0.77833862		-0.4907861507728275		-0.10408380797073748		0.05926500683078292
H		4.35643451		-2.95158012		-0.66406192		0.8580685917382542		-0.3048493208674284		0.259280477524656
H		6.98439618		-3.48366633		-0.44460966		-0.6199682960918673		1.9212380390358463		0.416185593681236
H		9.14119187		-0.585356		0.14899803		-0.4877107000621373		-0.9967889125760293		0.17650679498398505
H		7.44913625		0.73859556		-0.10287428		1.01899666152813		1.2718153912639274		0.4584437817996961
H		4.98411546		1.24321958		0.09129506		-0.1303142534458214		0.6062949639995823		-0.27005936456605595
20
Lattice="50.0 0.0 0.0 0.0 50.0 0.0 0.0 0.0 50.0" Properties=species:S:1:pos:R:3:forces:R:3 Energy=-13998.832707946725
C		0.85452186		0.26913598		0.15004682		5.050828930969542		-0.30764652679823057		1.484863937950587
C		2.23608108		-0.30648053		-0.55194989		-1.756665893368768		-0.9499617713652362		-1.3758281339443663
O		2.24446826		-1.02547665		-1.57225066		-0.14603516064259042		0.9315362693721277		1.6879469917795964
N		3.37377391		0.24028058		-0.00330767		0.7521835717642054		-1.1117018983652376		0.08443590070919459
C		4.66528114		-0.33670504		0.06460072		1.490555434666087		-0.44083691904070665		0.11636283083983556
C		5.5021406		-0.16735194		1.21415802		-0.02849178209315032		-1.5850053706598797		-2.8062114765981465
C		6.78580195		-0.72996071		1.27093725		1.1254151854000423		0.9787624457874916		2.1942522181540975
C		7.35217076		-1.21817837		0.13820425		0.48645152801905484		-2.6277777426681728		-3.158825825673296
O		8.62088048		-1.72538333		-0.1171975		0.8059119137095091		0.9457852200314184		3.0729697504435047
C		6.50819107		-1.53963286		-0.96105999		-0.33012125909854384		1.0378920583278577		0.4513220832614229
C		5.19137817		-1.12399673		-1.00095007		-0.21677957727145694		1.2965935748514492		1.093400323542621
H		1.34028021		1.12359134		0.68239036		-0.8886499093388436		0.5998066310044399		-0.4755116385001406
H		0.47412515		-0.26481832		1.03542345		-0.5006381551386626		-0.8301795790610804		-0.5874363339745025
H		0.29504334		0.52736951		-0.68779881		-2.0743984977610817		0.60364395099231		-1.4228064045966844
H		3.196436		0.73057187		0.83227418		-0.4540299690697586		1.1346411261556135		1.4756085323532349
H		5.0975778		0.18823817		2.08083401		-1.3349606040826594		1.494594843359365		2.873449062834475
H		7.44501982		-0.7502216		2.20641078		-0.9791366955579638		0.40547252687976515		-0.7134650213141234
H		9.16003875		-1.60938805		0.75198652		-0.8841845717023366		-0.24293571786630833		-1.7758975390348213
H		6.99030553		-2.01597825		-1.79017083		0.2772265716295928		-0.6309158474980858		-0.8636036625397977
H		4.47852042		-1.20847922		-1.78748938		-0.3944811638763437		-0.7017672220168371		-1.3550256471147537
20
Lattice="50.0 0.0 0.0 0.0 50.0 0.0 0.0 0.0 50.0" Properties=species:S:1:pos:R:3:forces:R:3 Energy=-13999.374624752612
C		0.85491131		-0.02044483		-0.41553967		-0.6974907576156893		-0.10827511743647689		2.1953105870433336
C		2.29715053		0.0015108		0.06757281		0.5315621493633829		0.8766788532017266		1.375945221980553
O		2.54813606		0.47716819		1.20440638		0.060197083134654814		-1.0365895889081969		-2.124858504839465
N		3.22502867		-0.64343652		-0.78552702		-2.98455748448959		0.5015218432817741		0.5724040196159298
C		4.49604726		-1.02616472		-0.46996374		2.3326827242479347		-0.286856792640104		-1.2942623556505204
C		5.42353441		-1.20177926		-1.54897876		0.8917262342245952		-0.672890237253914		-0.15139678482750787
C		6.82843156		-1.36551905		-1.40160397		-0.9119084167149383		1.3839586305036788		0.20571504067317684
C		7.38932052		-1.13491194		-0.12005457		-0.24397022691857004		0.033268223207447524		0.8753468675182223
O		8.74503489		-0.95418354		0.01630514		-0.34355871819039524		-0.11397052222872263		0.5373611181893921
C		6.4903281		-1.03625129		0.99130142		-1.7027827710155052		-1.2324737082611412		-2.4702139613137395
C		5.05246872		-1.11530981		0.80225925		0.9421797107010484		2.1986247903899545		3.040120617044982
H		0.2320643		0.81802231		0.05035755		0.8894524020453549		-0.6896544466756227		-0.3754218849636049
H		0.49628626		-0.96764036		0.10082829		-0.19028765060884195		0.5397362004095861		-0.5802582768557898
H		0.62333261		-0.06890369		-1.46242722		0.058054017260211144		-0.1903371186329137		-1.2537507693050556
H		2.81092502		-0.95811829		-1.67790503		0.41817526754340717		0.11956359711670349		0.31048106514636764
H		5.13482212		-1.2255552		-2.61261707		-0.6102189301626718		0.15404378691390921		0.10736839220939016
H		7.41844391		-1.26707096		-2.33762616		0.12860601253140974		-0.46195308045123207		0.46178688434541093
H		8.91907488		-0.75015443		0.97086577		-0.10605126750193264		-0.18556581972486094		-0.7079462513063749
H		6.77802074		-1.10444773		2.00990819		0.9294732676489104		0.2835693287659544		1.3708123745514518
H		4.47880659		-0.76644899		1.78339693		0.6087173545172253		-1.1123988215775502		-2.094543399256152
20
Lattice="50.0 0.0 0.0 0.0 50.0 0.0 0.0 0.0 50.0" Properties=species:S:1:pos:R:3:forces:R:3 Energy=-13998.949670049264
C		0.86994968		-0.22462199		-0.67716731		2.3007917895610053		0.10983449148011122		1.022727435002615
C		2.23894386		0.09602807		0.00281543		-0.7915329680763584		1.1115241322953666		-0.745685417155136
O		2.3942514		1.17578159		0.56732006		1.0596088294277366		-0.7806833242770346		0.08035823400145788
N		3.20413293		-0.84338461		-0.44325176		-0.2557293727363526		-0.6499253498543783		1.0425552166385892
C		4.57880458		-0.98648758		-0.17582059		0.4685404009165804		0.3772569841060674		-0.693076842041627
C		5.26183875		-2.22017233		-0.54914404		-1.2653781203767924		2.1459953379190932		2.013003126305279
C		6.59651693		-2.37753292		-0.32027431		1.2145430407749374		0.8712560881845623		-0.801312055957647
C		7.41368303		-1.1959279		-0.00793512		-2.457797744382039		-3.1050035356199057		-1.4565423114620661
O		8.70791865		-1.48741758		-0.21906025		0.9099871341958183		1.126220712008238		0.9477528338288009
C		6.75055573		0.00979074		0.20833576		-0.5861271796867238		-0.07079285621168942		0.963389923063785
C		5.32242115		0.13037914		0.20909454		1.0777984069983488		0.13295158818448313		-1.1828591827334725
H		1.2674398		-0.16967402		-1.69227414		-0.892062945889483		-0.7399504173748079		-0.8702569060892001
H		0.13795277		0.53379037		-0.4750167		-0.5416252927176157		0.8314925385814799		0.25695357777697264
H		0.58666442		-1.15513115		-0.20606432		-0.6829282866416737		-1.16265092925747		-0.5903978333948153
H		2.83067515		-1.78856075		-0.55120728		-0.6233075934049611		0.09942471200293898		-0.4546153064065663
H		4.65503993		-3.05944622		-0.75530448		-0.9802816077782941		-1.4243480894508376		-0.7119447794600093
H		7.05751567		-3.34509045		-0.66413742		0.07167443605024067		0.753266983197852		0.5735760312631686
H		9.14761847		-0.73594811		0.20658025		1.025695773557233		0.22806975387974426		-0.06055647192908055
H		7.26879303		0.87626029		0.58288685		0.8064811045187092		0.8402726500556561		-0.13906166048828264
H		4.87284979		1.153939		0.11860801		0.14165019568968443		-0.6942113670053436		0.8059923378151727
20
Lattice="50.0 0.0 0.0 0.0 50.0 0.0 0.0 0.0 50.0" Properties=species:S:1:pos:R:3:forces:R:3 Energy=-13999.087467882091
C		0.98458778		0.26257161		-0.86096776		0.8204259965227645		0.7517745092574581		1.5817615126946831
C		2.20983732		-0.13715858		0.10396786		-2.0828013769851634		1.9581797515402155		-1.9276159688629204
O		2.08462501		0.02730101		1.33177612		1.5557415891432478		-1.026490347266128		-1.8619526690683355
N		3.27284592		-0.44017127		-0.78998485		0.5532349031778091		-0.3179011144909448		3.2228779179853033
C		4.61500583		-0.70973856		-0.38947519		1.6217915314253537		-0.3251471001541469		-3.043238542379251
C		5.17154201		-0.94754669		0.86291062		-2.0204470354868302		0.5755658079694647		2.4421652317106117
C		6.58842164		-1.12343743		1.07103249		-2.7984621203656737		0.34123150991033724		1.9474369113645897
C		7.35941393		-1.29627111		-0.03019295		2.6823226669650975		0.12863450035400412		-0.047351543403603896
O		8.71367453		-1.51677831		-0.00390509		-1.0992537483327594		0.06137187157326555		-3.318986575447372
C		6.86121218		-1.13893292		-1.31024696		-0.36348091073301797		-0.5813509442606763		-1.9015979479277954
C		5.55168906		-0.80860112		-1.53919165		-1.9908845946315195		0.05487202003613553		2.100999644884329
H		1.17095425		-0.03402784		-1.89600091		-0.49215593167222843		-0.41256208662901045		-0.37086722720463144
H		0.74832219		1.36581157		-0.86793074		0.7699517455330835		-0.2995573735771234		0.11861342024685102
H		0.088771		-0.09306498		-0.35637189		-0.6678750949257486		-0.850747838396258		-0.25203716580870106
H		3.08927125		-0.49446503		-1.80430248		-0.09960684894811797		0.10324537124257727		0.7008239871254147
H		4.36076824		-0.91213004		1.7485895		2.0275039422264234		0.005895796569592583		-1.5027968165854755
H		6.92813038		-1.07747594		2.1430095		0.08643390494548188		-0.35377962443220823		-0.8638471460054731
H		9.03381045		-1.57140911		0.84918583		1.079263164447085		-0.24014925914655705		3.5234193555714293
H		7.50844616		-1.4490588		-2.14795331		0.1394552963762965		0.4320980480606113		0.041032337571841965
H		5.08263905		-0.69113678		-2.51636439		0.2788428698963534		-0.005183498160609142		-0.5888387678835556
20
Lattice="50.0 0.0 0.0 0.0 50.0 0.0 0.0 0.0 50.0" Properties=species:S:1:pos:R:3:forces:R:3 Energy=-13999.437534930732
C		0.88274289		-0.1031914		-0.56224423		1.229809736894133		2.12444527714566		0.12058123973248333
C		2.34117582		0.01190479		0.05260489		-1.3327801543688185		0.5761587043494516		2.261754165213454
O		2.65005361		0.73663318		1.04368083		-0.7701550683679899		-1.4820540821924237		-2.64124708343874
N		3.10187322		-0.99459583		-0.48413364		2.1482776033165742		0.8174475278218449		1.6483207905053037
C		4.51729063		-1.11553392		-0.32993876		0.07678218951286882		0.3612554152924755		-0.1916079120621086
C		5.31096288		-1.62878729		-1.39706891		0.5314043350537402		0.25889378361507215		1.1688129378443386
C		6.71495518		-1.59177232		-1.28515449		0.30020626858311267		-1.6173169378176067		-0.7107089016112144
C		7.34259854		-1.01108344		-0.19287549		0.625347403778016		0.22353756756205914		0.39511746047703394
O		8.72310301		-1.17272887		-0.04540603		-0.9079547800218181		-0.42145964609381015		0.6907351841620222
C		6.55009241		-0.46657052		0.84532505		1.0793256936750177		0.16993017030762517		-0.07814389714846588
C		5.16763988		-0.59930302		0.83901103		-0.3064058152755658		-0.3696648765405504		-0.7747948296403091
H		0.29667165		-0.8379434		-0.05310627		-0.4420264141891766		-1.3975299926461364		0.47135822709442293
H		0.82112169		-0.18172646		-1.66868385		0.19658885871874823		-0.3314761790218982		0.13154704597086966
H		0.35232867		0.81927801		-0.30243836		-0.05492107668370774		0.5572640788806605		0.023516543285442053
H		2.70566549		-1.34003281		-1.30941118		-0.5592852744671105		-1.0898126576679192		-1.8111327589749018
H		4.91381679		-2.19353243		-2.22922211		-0.6444927118012247		-0.08603965199271867		-0.5655307410613267
H		7.37898743		-2.26705296		-1.92148403		-0.7634717429120572		0.9805599039802447		0.221203982946258
H		9.22459536		-0.49129456		-0.49251644		0.21601107454822152		0.7159430505033314		-0.5360782919975853
H		7.09031742		0.09476775		1.63407553		-0.25962906768596833		-0.462444212569641		0.1739166656986475
H		4.60645559		-0.3637649		1.73954609		-0.3626310068849326		0.4723627570842793		0.0023802244264384586
20
Lattice="50.0 0.0 0.0 0.0 50.0 0.0 0.0 0.0 50.0" Properties=species:S:1:pos:R:3:forces:R:3 Energy=-13999.279001405508
C		0.90092984		0.15727922		-0.46320412		1.615940883426588		0.36400664989945214		-1.1062426751058
C		2.16171962		-0.58900917		-0.06269013		0.5486999914908145		0.41043850971623325		0.7031468759522275
O		2.1542123		-1.58809181		0.64657863		-0.012713950673255049		-0.14365581039121353		-0.14839209087474145
N		3.34785575		0.09973597		-0.42803331		-1.0527015608898576		-0.9099011050853485		-0.726846996000597
C		4.66975295		-0.42212673		-0.32980779		-0.4150522514249555		3.5154390114344554		-1.4466492208683377
C		5.70808563		0.42030142		-0.88719476		-1.4238429705314437		1.6774974116260917		0.699172619012067
C		7.01591591		0.06493512		-0.66165674		-0.8342105545361173		1.8021876341023406		-1.8075084805917396
C		7.32815193		-1.09826485		-0.05508485		3.6745481800315387		-0.5122624723087152		0.13060705066938127
O		8.71457932		-1.23913341		-0.04019967		-0.42829307255001864		0.4235039301862977		-0.08237773265984705
C		6.35826371		-1.87328305		0.44510694		-0.9067164339140257		-3.8802196147957617		1.6385656653051146
C		5.00398243		-1.54630528		0.34003612		1.0828687251995173		-0.6570895230162308		0.17516488484242915
H		0.00093624		-0.31269139		-0.22351969		-1.7418327366580433		-1.7432913748813486		0.7734323506737754
H		0.87357095		0.25976535		-1.56708333		0.0654014586526165		0.6295188643276517		0.013056421609136486
H		0.84601138		1.08524209		0.09833096		0.22488996780435372		1.0162911925567288		-0.11490892344627524
H		3.18704539		0.72470334		-1.23667113		0.30373099385338187		-0.018649085120617796		0.5135634504885651
H		5.46024352		1.51720706		-1.19750239		0.23405193951424383		-1.8347686014452156		-0.02140870152377296
H		7.88395318		0.5264316		-1.09749275		0.43685890828998786		1.1032776275631786		-0.2841790915824232
H		9.09287646		-2.08281752		0.2052843		-0.3253414755501877		-0.9974232551383467		0.43444099149177734
H		6.61111073		-2.89527944		0.86151293		-0.12214287634686521		0.8708301592413331		-0.033278507619936455
H		4.21659168		-2.11442633		0.75472933		-0.9241431651882716		-1.1157300456268402		0.6906421102289974
20
Lattice="50.0 0.0 0.0 0.0 50.0 0.0 0.0 0.0 50.0" Properties=species:S:1:pos:R:3:forces:R:3 Energy=-13999.684183931113
C		0.91608815		0.17772986		-0.40557487		1.1211951310013963		1.4152783689209736		1.0416246829965907
C		2.23596481		-0.60767426		-0.17719351		-2.0981426350949035		-2.070660885152291		0.19443370865963003
O		2.24235902		-1.84145789		0.02703513		0.033023916988772946		1.6212585417481147		-0.08227735679395506
N		3.33427756		0.18551817		-0.19837603		-0.7058757419620408		0.019529585095857723		0.34813481894940806
C		4.63558068		-0.2560985		-0.05007137		0.36137785122315624		-1.3037989370853198		0.44292300926996175
C		5.59336966		0.43243756		-0.72387136		1.098150282294759		3.257385001521167		-2.1678546509760688
C		6.97740819		0.12702726		-0.79511189		-1.0439612500920137		-0.3639509083837621		0.25200317582542514
C		7.36539885		-1.0713179		-0.14553382		0.11796287973486365		0.08530436792182246		0.36032097357373105
O		8.66122961		-1.50814919		-0.05724443		-0.9955731407536502		-0.937784872712153		0.27682486247777516
C		6.39278035		-1.85779626		0.53237442		-1.2325107321461013		0.6808268212157478		-0.02999598026378154
C		5.02989323		-1.42552485		0.63178344		0.17980999400924272		-1.0495310822077695		0.3923630891242481
H		0.3886228		-0.01109657		-1.30536996		-0.7316065706784124		-1.191643048018207		-1.4977020729046457
H		1.12658297		1.26433851		-0.55491407		0.09995173672093431		0.004434741509352437		0.3992677865590049
H		0.18016058		0.12422693		0.4245427		0.3094983381109877		-0.3342144038470764		0.06499471013867923
H		3.15870706		1.08357524		-0.63716347		0.3685309172195207		0.4312234102004901		0.09417590782302511
H		5.12993516		1.36490905		-1.2589978		1.3036955787398061		-1.1809849514014894		0.49491199995307483
H		7.65735157		0.7688176		-1.39047568		-0.049928148686518514		-0.22172833371700623		0.27172096566983034
H		9.24727406		-0.82569382		-0.35969766		0.7602254681099259		0.9582393350231403		-0.5509596311808204
H		6.71804815		-2.81367407		0.96421662		0.0065760590336730014		0.05841150343832643		0.20664295178999076
H		4.20578955		-1.97643875		1.17871036		1.0976000662266012		0.12240574593008233		-0.5115530021131662
20
Lattice="50.0 0.0 0.0 0.0 50.0 0.0 0.0 0.0 50.0" Properties=species:S:1:pos:R:3:forces:R:3 Energy=-13999.348370560821
C		0.8489591		0.14603362		0.21852216		0.0775942467229949		-2.567877159145574		0.800027738526029
C		2.13150165		-0.42886297		-0.35666115		0.9803794639631263		0.01784109025342484		1.1865841969369637
O		2.23124789		-0.99882539		-1.42250052		-0.398526280418553		-0.3381174926528135		-1.0662454636509693
N		3.24501139		-0.17344446		0.43997327		1.2214554000969986		-0.8318946591097971		0.972774500881998
C		4.64426149		-0.63850731		0.19161488		-2.7797682466286666		1.674031153240822		0.5338913631038762
C		5.58378455		-0.20850833		1.12228021		0.9277565420941953		-0.6969729888689341		1.22524289210636
C		6.94868929		-0.54241082		0.98857131		0.15014897706022573		2.6857140548274483		3.645319056984994
C		7.40029313		-1.09693145		-0.16369482		0.9049891668365094		0.22447401474123888		0.696472240824848
O		8.73944891		-1.15674381		-0.24094814		1.2460160169383172		-0.4738249948519558		-1.719265341801205
C		6.45569079		-1.44416708		-1.08717404		1.7955044629125956		-0.7328018250978761		-2.05316062032875
C		5.12580262		-1.23827767		-0.96478096		-1.840260683402555		-0.34973800459024523		-0.7195276824763489
H		0.73108989		0.0431194		1.33613755		-0.03488045913127498		-0.4622485001999767		-0.6334199990950159
H		0.02318601		-0.27691901		-0.36946815		-0.33737243839005276		0.07471260576565855		0.17478477295683828
H		0.93109472		1.16720722		0.10230181		-0.11882656469568416		3.167255547213975		-0.6859985437240571
H		3.01928468		0.04884546		1.45283203		0.59418475976149		-0.16060189964778904		-1.40348302197123
H		5.24838867		0.27691865		2.04791079		-0.030624974931604626		0.22744137627667046		0.05110334850162878
H		7.77428809		-0.11662451		1.75751671		-1.896770033328991		-1.0330876950336527		-1.4939017768017357
H		8.98590214		-1.22507729		-1.19858696		-0.014772427254977264		-0.17198309330660339		0.6693071993648324
H		6.804247		-1.77539173		-2.06094583		0.24182623544700232		-0.5127492335518165		-0.5383737728651149
H		4.55961962		-1.56469107		-1.84430955		-0.6880531636510959		0.2604276008936715		0.3578689639481199
20
Lattice="50.0 0.0 0.0 0.0 50.0 0.0 0.0 0.0 50.0" Properties=species:S:1:pos:R:3:forces:R:3 Energy=-13999.013960023338
C		0.85955578		0.25813412		-0.44715827		-0.8708126757401021		-2.2218844290514226		2.505267609951328
C		2.17300965		-0.59598922		-0.1711114		-2.295462458431303		-1.2647166269655044		2.007841996741833
O		2.17665847		-1.74160745		0.30834577		-0.38264395936777024		0.6026361299904572		-0.9133193866863574
N		3.29142513		0.11408488		-0.35872853		2.8486892369232453		-0.9453107486612414		0.011696205213350321
C		4.68979514		-0.36354062		-0.22561866		-1.512527670572191		1.3346989686289412		-0.16002509837334727
C		5.66639311		0.55489561		-0.69919533		0.5008120131317879		-0.8269189575035268		-0.10563269191363307
C		7.0224617		0.09216731		-0.7179479		-1.2270946005749925		3.3944282946364344		0.6350250873521636
C		7.35647378		-1.05178058		-0.02111882		2.6223414022265232		-0.20993962021331794		-1.2627373917820093
O		8.67235006		-1.48486547		-0.14643651		-0.06367629987966057		-0.37350754442291506		-0.11953860599435538
C		6.42872288		-1.85718523		0.54917534		-2.2393075607812976		-2.4875655649547532		0.3682191452549188
C		5.05470453		-1.58413933		0.3938786		1.718411941252873		2.595625995280524		-0.7737201599572782
H		0.78204027		1.12816089		0.21628811		0.5566128698818614		0.6884692195583357		-0.06783058546043982
H		-0.15904201		-0.25037048		-0.15281892		1.8786228275378327		0.06282973846563411		-0.7526372686211548
H		0.8850494		0.49055294		-1.47093319		-0.32319141627525155		0.8788877907381618		-2.02392697214071
H		3.16020535		1.10166253		-0.35873436		0.15344636539242715		1.2453542664167168		-0.4494773681932831
H		5.33501012		1.58793577		-1.01065395		0.48633803952723953		-0.836672334353593		-0.07771729971842498
H		7.82058911		0.8593804		-0.93278138		-0.39739345238289714		-0.8581811546329458		-0.3263564442187204
H		9.22666943		-1.1533879		0.56878808		0.15208527482157944		0.25438010923986715		0.45299201473931316
H		6.67282172		-2.88313716		0.92890277		0.2721073510470395		0.7973929234684272		0.12059687203946651
H		4.30417969		-2.07463042		0.90503445		-1.8773572791590074		-1.8300064556642779		0.9312803931894031
20
Lattice="50.0 0.0 0.0 0.0 50.0 0.0 0.0 0.0 50.0" Properties=species:S:1:pos:R:3:forces:R:3 Energy=-13999.141908697646
C		0.7617825		-0.46049319		-0.39207747		-0.2231960222233017		-0.3641490375903615		-1.3118381080617307
C		2.13996355		-0.07371079		0.09061638		1.4055598562292448		-2.0804575079568735		-3.1181899007808402
O		2.36061491		0.74250956		0.90543993		0.15896544393255016		3.0159859291468925		3.8404757598425965
N		3.23121492		-0.65524131		-0.60096676		-2.3587670796436133		-0.75252779105021		-0.36327470826261493
C		4.57540369		-0.74527491		-0.32297605		1.4526460617906343		-1.4038627224803213		-1.2072194077974439
C		5.39423161		-1.39900842		-1.31224978		-2.364119704967603		0.6221444777745253		-0.6875890281154705
C		6.75026524		-1.51691081		-1.33897091		0.06913572882734777		-0.047853114200689106		1.1859011062594487
C		7.4243686		-1.23130515		-0.181744		1.8102689711699564		1.2853202132575814		0.9418443360097845
O		8.83871754		-1.33633867		-0.09062688		-1.200397242772911		0.9593655810348034		1.2271969304792572
C		6.60342832		-0.70828953		0.82663156		3.066530011297373		-0.11051634802812742		2.713691719140277
C		5.27101478		-0.44531747		0.8586035		-2.0057097809225652		-0.10529011813362678		-0.8648320327674759
H		0.70663989		-0.77356261		-1.48908912		0.29316417139750367		-0.11628271526654678		0.9521817132230346
H		0.1854829		0.47997089		-0.39294252		-0.40605493315901325		-0.10050061581546861		0.5363031092545933
H		0.33552828		-1.27310166		0.25175955		-0.07905432476404861		0.48778438787762046		-0.23731153263054844
H		2.87881067		-1.21757442		-1.37923484		0.5269672281295154		-0.15815981448022967		-0.15055742250222368
H		4.93670581		-1.86424252		-2.18307545		-0.7440247416484858		0.22702388055168227		-0.5259640865353449
H		7.22546695		-1.85001063		-2.19979333		1.1716482989454748		-1.047655411058038		-1.9515963391516133
H		9.16422547		-0.7921183		0.71347752		-0.8893433358509097		-1.0738184936313195		-1.4602529274880727
H		7.12654798		-0.58149739		1.79360429		0.0743453493956788		0.2252498193973415		0.09262728099044171
H		4.68415076		-0.195896		1.74133875		0.2414360448371722		0.5381994006513651		0.3884034874718843
20