18
Lattice="50.0 0.0 0.0 0.0 50.0 0.0 0.0 0.0 50.0" Properties=species:S:1:pos:R:3:forces:R:3 Energy=-10478.408770799717
C		-1.11248255		-1.50828663		0.26589489		-2.2763426557510664		1.0432107965126962		-0.8629145040589143
C		-2.3751464		-0.98336217		-0.05703068		0.9210851465567501		1.8360720993061252		0.4740199358906835
C		-2.39892223		0.48157052		-0.24281308		-3.8727437210913696		-1.2986323053611926		0.21200437028665836
C		-1.38138452		1.35932311		-0.21498432		2.687528173768433		-0.7690895003900116		-0.4889771226160244
C		-0.04694642		0.75624597		-0.17423121		-0.29038100368974884		0.9589590896311785		1.6204461760056146
C		1.18632283		1.52732613		-0.10236457		-3.4975474247157097		1.0716359356129184		-1.4500653427427241
C		2.3575651		0.88298708		0.03797683		3.642530798493057		-1.0678785769321495		-0.2692415480849361
C		2.48252753		-0.54466777		0.13315957		-0.30440004630784934		-0.9432829710507986		0.09296882632919916
C		1.3084139		-1.31753695		0.22690296		-0.17392453327420154		0.7159296293450336		-0.2025211649526765
C		0.00886044		-0.63822582		0.13255108		1.9270705864686324		-1.8888619886118136		0.0369171841805831
H		-1.09197222		-2.55249687		0.59016761		0.6423236777852465		-0.2523418415286857		-0.06020088836727573
H		-3.33087772		-1.55691301		-0.02745631		0.5015452403201864		0.22999592149479633		-0.028272775529198508
H		-3.39850279		1.01660484		-0.28689404		0.43256902273054204		-0.9163665038406404		-0.1209705047451894
H		-1.61726319		2.42819169		-0.27706582		0.44362034385877375		0.1895311806482185		-0.03085601425816849
H		0.91783347		2.59347308		-0.39619105		1.2608963791023657		-0.6427427675941704		0.639468622034194
H		3.4142331		1.28830671		-0.03504824		-1.2149457269459418		0.6669048634515428		0.12107072634489406
H		3.55319483		-0.96057885		0.0762347		-1.4838825478888307		0.22441791327111177		0.2683000615436368
H		1.21017978		-2.43977902		0.29654038		0.6549983420027938		0.8425390260358419		0.048823911317581854
18
Lattice="50.0 0.0 0.0 0.0 50.0 0.0 0.0 0.0 50.0" Properties=species:S:1:pos:R:3:forces:R:3 Energy=-10478.368138131995
C		-1.17883682		-1.42294303		0.05518975		-0.14311721570916813		-1.1751529696113907		0.07113373306363506
C		-2.3509579		-0.79163852		0.18156911		-1.704626869018896		-1.429462116405084		-0.35332757308125723
C		-2.37266207		0.56817023		0.08832817		-3.409430115711977		2.825743375686814		-0.10804484944084969
C		-1.2823662		1.3719612		-0.13947043		0.20820674813099532		0.0020325084401876625		0.16517270393437006
C		0.00216482		0.72005933		-0.13303422		-3.7874094769512667		-0.6965990990528991		-0.787337030624999
C		1.16469693		1.42366429		-0.19677132		0.04736254772496705		3.900840993121445		0.4459442097047729
C		2.31526798		0.81155442		0.03262226		3.839364837605541		-2.497133359581457		0.1207581830493554
C		2.4640515		-0.62490095		0.094402		-1.569288165851607		1.5866887747181306		-0.020810868625791335
C		1.26300338		-1.30746917		0.03800594		1.5081936134611051		-1.849619498767483		0.11727505822760385
C		-0.01392702		-0.75226281		-0.06382736		2.8861634248842294		3.6042188937127873		0.2136565097309429
H		-1.14552544		-2.46643354		0.06410533		0.09600067113093634		-2.3221301457033534		0.05201465029227306
H		-3.23801091		-1.44119873		0.15760959		-0.36701201233903036		0.40768321276632347		0.4081184491028551
H		-3.42128719		1.04876036		0.1360413		1.3294578777583939		-0.36292478112767895		-0.0797844152066379
H		-1.51331002		2.4614289		-0.28488004		0.8172813831380862		-0.5762184567860124		0.1426120967897742
H		1.23225199		2.57800514		-0.16926013		-0.6621011172220875		-1.4896465497123774		-0.25716507671980754
H		3.18081393		1.42886069		0.18484167		1.022946904365129		0.4704357152941658		-0.036601709827485104
H		3.39140757		-1.18227237		0.23961841		0.32852897493494493		0.2125393140022702		0.048362295463016146
H		1.38942055		-2.38180947		0.18474981		-0.4405219074861708		-0.6112958624164504		-0.1419763658317709
18
Lattice="50.0 0.0 0.0 0.0 50.0 0.0 0.0 0.0 50.0" Properties=species:S:1:pos:R:3:forces:R:3 Energy=-10478.703610625344
C		-1.12640753		-1.41421561		0.25742803		-0.14122179848745792		0.19498675294122234		-0.19001156555557652
C		-2.36911705		-0.92897044		-0.01376911		-0.4950832354210156		0.49018749512184684		0.19884407611138374
C		-2.41606874		0.4354846		-0.35168538		-2.1953063704342135		0.2421879382342381		-0.5714581107772603
C		-1.33892078		1.25196522		-0.26594992		0.6920849104570697		2.143776115970169		-0.41612861803604717
C		-0.02098694		0.82484535		-0.02231188		-1.4972417426016411		-2.751675859694524		1.4008409049807606
C		1.1404204		1.56500387		0.06815517		2.858182263871154		-0.18683213943462315		-1.0250178765080251
C		2.35915387		0.8478611		-0.07483595		-0.5671251849515483		-0.1907884500749905		0.13073334325474537
C		2.42735345		-0.56683858		0.01957628		1.3577955479303976		-1.084353640096732		0.37457280386851866
C		1.29842544		-1.34718254		0.24741511		-0.8826710661384028		1.0414926311402328		-0.4440881817828954
C		0.03706661		-0.64054812		0.20319593		1.663107667359828		0.2650466390748256		-0.4359190158326243
H		-1.01438904		-2.4534367		0.40934743		0.25981860940813933		-1.7080951328646008		0.49058575899548074
H		-3.25364252		-1.5580554		0.12713097		-0.23163618244265613		-0.051778777291839405		-0.3838286722644327
H		-3.32406412		0.93853246		-0.76769334		0.051061748053111054		-0.5285029994464876		0.5418435793726932
H		-1.52510165		2.31362496		-0.49986027		0.21248624643382735		0.08551689530590624		0.002526623038218408
H		1.21947801		2.65573012		0.05593238		-0.44531572925757423		0.2845919593217914		-0.1880713082954146
H		3.30750573		1.29095693		-0.39617771		0.09604947066819634		0.7140867140490794		0.47398383760284735
H		3.46771372		-1.05285292		-0.00231083		-1.2162088070657697		0.5261557365620763		-0.2073383837624924
H		1.23081324		-2.461058		0.27325253		0.4812237040406185		0.5139981726044723		0.24793080559012026
18
Lattice="50.0 0.0 0.0 0.0 50.0 0.0 0.0 0.0 50.0" Properties=species:S:1:pos:R:3:forces:R:3 Energy=-10478.517284036665
C		-1.14652151		-1.46346321		0.11223264		0.40101150869650337		-3.033671570505547		0.7277233822108412
C		-2.32764358		-0.83725335		0.16669241		-2.9111231283521803		1.5379425107148401		0.1813571810240777
C		-2.54093121		0.54444553		-0.01390688		3.106895507563433		1.4440456190026396		-0.7295067507584845
C		-1.34306484		1.36054817		-0.25505653		-3.2370525123422977		-2.077032901442184		0.48103801897313075
C		-0.11169837		0.69043043		-0.10072757		2.033024254896045		-0.11222242921591637		-0.3304838360608411
C		1.11922094		1.415415		-0.20502061		1.6898387066128104		1.0603252930237779		0.5716686841229712
C		2.44592724		0.90528529		-0.10637062		-1.874338135606694		-1.8563702899693433		0.5371586695295475
C		2.54721103		-0.54459744		0.08003601		-1.7970224936180241		0.7894216810365056		0.7462941001082934
C		1.33049332		-1.29343909		0.19013649		2.5924262060228425		-0.5202291381770793		-0.712630852617146
C		0.03764812		-0.78099525		0.10654622		0.46778454802070635		3.4052670883805822		-1.0162435243048429
H		-1.15248167		-2.56542635		0.20163659		0.15353316583383375		0.03394344630940837		0.007838933465251425
H		-3.23199774		-1.37943591		0.39160714		-0.6230387588625005		-0.8361823335205578		-0.09990679383835768
H		-3.54718987		0.96457784		-0.06648168		-0.21101763233040782		0.13047890688976918		0.048053094601536395
H		-1.51902521		2.38350223		-0.63416779		0.6287343179209335		0.036467858198941654		0.37663009774280465
H		1.11043702		2.53190842		-0.15034939		-0.4592817043072319		-0.3712400885794177		-0.44222284646771526
H		3.28297808		1.61332		-0.02522976		0.13578288694268614		-0.18676055992370022		-0.1923113144542891
H		3.439996		-1.11297439		0.40143322		0.260765340999808		0.41249482657133285		-0.6048374056395883
H		1.49058256		-2.39228909		0.18527819		-0.35692197524613906		0.14332213262801013		0.450381110940748
18
Lattice="50.0 0.0 0.0 0.0 50.0 0.0 0.0 0.0 50.0" Properties=species:S:1:pos:R:3:forces:R:3 Energy=-10478.5183763065
C		-1.09688672		-1.50988138		0.22402379		1.0456824493661612		-0.017703022015760926		-0.5048956962208307
C		-2.2889759		-0.85005854		0.11868502		-2.9847744341710434		-2.466219701191288		-0.63753042165653
C		-2.48280068		0.52114847		-0.11937894		-0.9707897121157592		-0.627728965178078		-0.8710932345128001
C		-1.38220211		1.22172624		-0.42526824		2.071711849264535		0.6520651761388879		0.5240292800138021
C		-0.09383885		0.60099578		-0.21793793		0.39028712904129476		2.022360193320084		-0.8515143870811203
C		1.05982721		1.41279983		-0.30316817		-2.598757033240717		1.7959100287190966		-0.5209054925644139
C		2.29358418		0.96527007		-0.01775392		1.051613881425028		0.17816217401820356		-0.12927300810337947
C		2.50925216		-0.38719544		0.28727997		-2.510623166332877		-0.3479503165893566		-0.02886634039599723
C		1.38620031		-1.26175662		0.40852589		2.0373816062014183		2.033865725525889		-0.8724423437430984
C		0.09516013		-0.74438915		0.08022363		-0.24613530143574003		-1.573532182931352		1.7246763825881315
H		-0.87740198		-2.58372233		0.23535453		-0.8806810323217944		-0.35656176369871423		0.31145139946469835
H		-3.24769028		-1.44875508		-0.08091378		1.0218418956652555		0.2866023562751278		0.8778808439113704
H		-3.48757433		0.87529489		-0.38171935		-0.1685440371923669		0.18776472995911955		0.40895529174707945
H		-1.39761019		2.27673043		-0.70858245		-0.0184390774175938		0.29053074473558765		-0.164531110861248
H		0.78575264		2.46852114		-0.569502		0.8188307298795436		-0.3547049644458999		0.21503359256321095
H		3.05238028		1.73553922		-0.03844		1.0236473242776873		0.038962342448132146		-0.033424597699341745
H		3.51189951		-0.70189158		0.37160691		1.5658549204304264		-0.8613601693773997		0.5602065007158065
H		1.66845057		-2.24825769		0.75297917		-0.6481079399013966		-0.8804623857122796		-0.007756606743277523
18
Lattice="50.0 0.0 0.0 0.0 50.0 0.0 0.0 0.0 50.0" Properties=species:S:1:pos:R:3:forces:R:3 Energy=-10478.527491376231
C		-1.14921432		-1.56138848		-0.1937783		-1.3666696589347225		-0.2448172511311585		0.39511344955616323
C		-2.38092456		-0.8760159		-0.00208826		1.5335408335916394		-0.7080697671003671		0.3513995542719571
C		-2.38362562		0.55116841		0.19820333		-2.949856231245935		-2.9489687378702025		-0.6059393290157149
C		-1.29778626		1.29339044		0.00056803		1.7116707145546282		-0.823223819518316		0.8892521645341954
C		-0.05005469		0.63334229		-0.00355573		-0.8203065430717056		-0.5230526207817906		-1.5858238556278115
C		1.06031613		1.480464		0.03111648		-0.4877841307673082		1.6690666102221026		-0.011426805028202744
C		2.30757595		0.96819466		0.08124992		2.572498511319538		1.1568511376784616		0.5398531341795852
C		2.44042963		-0.41889354		0.09662964		0.6001210254942264		-0.08033175163929887		-0.28209510965772844
C		1.40923658		-1.27021148		-0.11545603		-2.5375656531066317		0.50967028614088		0.10872007254281053
C		0.0428481		-0.802322		-0.17467587		1.4436683353304833		1.0836536315606726		0.5773443942653006
H		-1.12845623		-2.68924256		-0.18246652		0.06875366290338393		0.813793681752777		-0.2858229520746541
H		-3.31678065		-1.46879009		0.1314745		0.3642812951349691		0.36632295670227194		-0.1336796731666371
H		-3.38896261		0.83383072		0.46060479		-0.6573184026161719		1.262012597811852		0.0646382009797504
H		-1.16160392		2.31952272		0.15275373		-0.6363951767839391		2.2636821326006915		0.15077879448104795
H		0.81478985		2.57355513		0.05290012		0.4933207956527873		-0.48893799042650404		-0.0008505209128346896
H		3.26318347		1.59770246		0.18824198		-1.2865239523173482		-0.5788058607020403		-0.16381243611652144
H		3.40275096		-0.82926212		0.2800029		1.399008119831108		-0.6039346913333723		0.051951812531965694
H		1.52946726		-2.3102477		-0.10833296		0.5555565064530607		-2.124910646810784		-0.059600895742671425
18
Lattice="50.0 0.0 0.0 0.0 50.0 0.0 0.0 0.0 50.0" Properties=species:S:1:pos:R:3:forces:R:3 Energy=-10478.429697577143
C		-1.24028659		-1.39384183		0.0874753		1.79258034733168		-0.8676734616719805		-0.8055079934090065
C		-2.39545801		-0.76759059		-0.06316707		-0.7474911028778803		3.453464113334901		0.12717899887650796
C		-2.47796458		0.63906463		-0.25502349		2.3886693689096203		-1.2299009082108472		0.5047027606425383
C		-1.3077296		1.35172723		-0.30839847		1.8332070676749583		0.17938679043532316		-0.4892133041488327
C		0.01721597		0.76423459		-0.06000561		-1.2832451273496894		-0.18405462815373727		-0.08957229626060441
C		1.29556283		1.43253272		-0.00572917		-2.8410718297030058		0.6670628834494352		-0.6596389774501746
C		2.42898215		0.71938197		0.02583243		2.7893041595766537		-0.5440677378396122		0.5085603923450743
C		2.45072613		-0.6739561		0.27411437		-1.501078496946825		-0.42831446412799556		-0.898950314089196
C		1.23297812		-1.38620755		0.31275886		0.7073822027034196		1.535722363168792		-0.029210919636438903
C		-0.02281693		-0.67067946		0.06839283		2.2169316102629404		-1.1848448970968353		1.388166189341151
H		-1.30314096		-2.45633535		-0.12178956		0.6063037057501979		-0.8063366085232396		0.602666623273487
H		-3.25653482		-1.29773205		-0.15353791		-3.1586330957832534		-2.014385762720291		-0.20737993278894762
H		-3.34144693		1.16137986		-0.50470795		-2.2638003519222516		0.808412362917943		-0.5329679771285574
H		-1.35770841		2.27880565		-0.87928684		0.14650402700796084		0.9701672994719289		0.5209663762863482
H		1.36020243		2.51978747		-0.05928912		-0.23158409189339968		0.3816140783011284		-0.15786676014635753
H		3.38747854		1.28457806		-0.06786087		-0.2571257902640998		-0.3665404206043504		0.15807080289013797
H		3.3839201		-1.22917721		0.26022155		0.5147632300495241		-0.15519867501435386		0.3685329741020186
H		1.35123947		-2.43606318		0.61824938		-0.7116158839486133		-0.2145123271162094		-0.3085365912770852
18
Lattice="50.0 0.0 0.0 0.0 50.0 0.0 0.0 0.0 50.0" Properties=species:S:1:pos:R:3:forces:R:3 Energy=-10478.362792843833
C		-1.12780045		-1.49221655		0.1028791		-1.8899982105035915		-1.7973576111989764		-0.571638602216441
C		-2.39298625		-0.96590979		-0.23397936		0.9035259006275843		-2.5798258466855275		1.3349258941905093
C		-2.45686079		0.37729806		-0.12697256		0.3042374497463993		2.8296595256964125		-0.5740601185590226
C		-1.34349152		1.21624544		-0.07877262		0.17039769969937205		2.363689559415253		0.17940072581424565
C		-0.0085681		0.74084428		-0.03181448		-1.5973877004524288		-0.7154248189580144		0.0029815026026038774
C		1.17889608		1.53343641		-0.19852268		-0.515364919602189		0.4142930560950226		1.007382474504379
C		2.4249805		0.93850258		-0.09690422		-1.4204824359065604		-0.03554570635312155		-0.8089066317821614
C		2.43061213		-0.44929816		0.10133185		-0.9277440465330213		0.41542341587168113		0.45685833677040233
C		1.31451464		-1.20477466		0.38391335		-0.511905911727724		0.16182173381310128		-0.6597540600259258
C		-0.02757116		-0.69487828		0.20466453		4.291936631250557		1.929884401725604		-0.02601035904782077
H		-0.88492854		-2.55338941		0.22108009		-0.47390223078974764		-0.4183012515963966		-0.015432429426454486
H		-3.36952347		-1.48746934		-0.29667671		0.6187314926459483		-0.47200264838097933		-0.16453157365981
H		-3.4426349		0.77447784		-0.18291582		-1.1391078007657442		1.0606764542882126		-0.036027993876790024
H		-1.454401		2.34945425		-0.02478947		-0.25982272317313493		-1.0357857078059993		-0.2522800322096272
H		1.01851584		2.62474682		-0.23361567		0.1562054675749579		-0.002216445157552214		-0.34502743513793965
H		3.39147692		1.36924031		-0.32627332		0.3012400577265001		0.8437377257334896		0.03614014539498183
H		3.39182799		-0.82536854		-0.06223637		1.8837014761131177		-1.6430311057857463		0.31258792988885026
H		1.44837182		-2.2427468		0.59831918		0.10573985549176779		-1.3196946792944009		0.12339222677602071
18
Lattice="50.0 0.0 0.0 0.0 50.0 0.0 0.0 0.0 50.0" Properties=species:S:1:pos:R:3:forces:R:3 Energy=-10478.386333974095
C		-1.05163929		-1.49426722		0.39760355		-0.9220029275272623		0.359055013818406		-0.7056384291438587
C		-2.34062088		-0.99607971		0.0410769		2.0023781454967753		0.5751978831126732		0.09266373923271498
C		-2.51573869		0.39572538		-0.39599993		-0.9319858524640814		0.05915640343489978		1.117588181853278
C		-1.41438527		1.26505137		-0.35785084		0.21918875231905174		-3.4393259257981157		0.2247170354083523
C		-0.06753567		0.73081449		-0.16693496		-2.439989307138266		0.007047856456602763		0.04989611274161548
C		1.04998952		1.52818378		-0.18240536		3.5110465902824948		-0.5677080540293584		-0.282713408536563
C		2.34695157		0.91634652		-0.04736367		-0.7166557602888144		3.1685900011564767		-0.953349765371465
C		2.50031087		-0.42887163		0.17469768		2.0856258366090614		-1.6387855974661905		1.3151113280245832
C		1.38647869		-1.26046942		0.36996913		0.10130963912391047		0.14431658389362742		-1.0520410444977557
C		0.07912179		-0.65702941		0.12473867		1.0382799349448777		-2.1813978852503686		1.4357507775317542
H		-0.7914613		-2.50830782		0.88659185		-0.9038563902229161		1.2021224529679293		-0.8736320960018804
H		-3.15856643		-1.67315815		0.18054122		-1.1347832053141482		-0.390329603664874		0.03249087588947159
H		-3.60555499		0.86308265		-0.47929137		2.043153115646082		-1.074219482874263		-0.0016180466168836964
H		-1.58405747		2.28755182		-0.27021144		-0.19685255105496444		2.479935405063027		-0.4146605695753146
H		1.02224736		2.57268267		-0.44083484		-0.26684610272801407		0.8814488151361557		-0.060495691051270964
H		3.29469854		1.53083282		-0.22646428		-1.1582485322253953		-0.4274674913374696		0.37755744321693163
H		3.63454115		-0.67385261		0.3545904		-2.0054237199891856		-0.5153431680697749		-0.40812240860166343
H		1.51079005		-2.39173121		0.50174077		-0.32433761404714306		1.357706896294743		0.10649596549795405
18
Lattice="50.0 0.0 0.0 0.0 50.0 0.0 0.0 0.0 50.0" Properties=species:S:1:pos:R:3:forces:R:3 Energy=-10478.772952282163
C		-1.25709767		-1.44103864		0.13877517		2.813689221496787		3.780725174476148		-0.9792627824550779
C		-2.42188562		-0.71301919		0.1179822		-1.0796825627883837		-1.6624278676943094		-0.05312238436145596
C		-2.48335256		0.68206439		-0.02434526		1.1564840355746693		-0.5747248515602448		0.1966887717860782
C		-1.28168412		1.37440723		-0.07992445		-0.76896557321952		-2.080262361229896		-0.4279008250576907
C		-0.02667757		0.68457898		-0.14936882		-0.21691193766018954		-0.5262362635118645		1.0923163978883499
C		1.19274109		1.36800987		-0.08370904		-0.8135691216060811		3.479526562931979		-0.7426242617778053
C		2.40828096		0.77764629		0.04831815		1.1249909533848739		-0.3377901912253532		0.07930834975252522
C		2.48249349		-0.6330022		0.08734213		0.22406639205224005		0.9421499373268932		-0.31285337057518964
C		1.33527158		-1.36327606		-0.04100152		-0.4564098849638225		-1.1470075665308677		-0.11832483963241161
C		0.06657922		-0.74753444		-0.03708604		-3.2297774732138147		-0.19337179164808532		0.02531765244462874
H		-1.1982733		-2.43586202		0.36706237		-0.19325912590926908		-3.3070465268139095		0.46891202816186806
H		-3.36755354		-1.30472588		0.21264477		0.3217338064931952		0.39953142747315873		0.08580305908341078
H		-3.46739844		1.12072551		0.02022737		-0.49556151202381343		0.7542894594875015		-0.050489163387789755
H		-1.41535908		2.4098218		-0.0596302		0.5736419029251602		2.3860508546458137		-0.0971400297685227
H		1.04206181		2.49843695		-0.20579631		0.7133717416928488		-1.068503149302602		0.2622619801272599
H		3.36376465		1.3276042		0.0418295		-0.22463589139381468		0.2517927053238391		0.15748016908089854
H		3.477233		-1.04428432		0.14300909		0.5820225163962037		-0.747532703326398		-0.05058953925368173
H		1.39083022		-2.43868775		-0.2444684		-0.031227590081393603		-0.34916284882180176		0.46421878794460625
18
Lattice="50.0 0.0 0.0 0.0 50.0 0.0 0.0 0.0 50.0" Properties=species:S:1:pos:R:3:forces:R:3 Energy=-10478.67661983903
C		-1.23069777		-1.37906214		0.18008563		-1.3640918195223093		-2.102117817632188		-0.5776015559995863
C		-2.47348297		-0.72309169		-0.06236911		1.7749992470259752		-0.5412450779878999		-0.09515374976247278
C		-2.45163661		0.68425195		-0.31107212		-2.52955738678975		-0.314730995763294		0.4593848569644959
C		-1.28404175		1.37064125		-0.3740537		2.8106779455200273		-0.07977073693802762		1.4375035499522426
C		-0.01943047		0.67723651		-0.06492183		-0.23518080805109146		1.0705528327116465		-1.368301795196716
C		1.18814821		1.45100773		-0.20736483		1.2038130561149225		-1.5942235981060842		-0.028861969520689434
C		2.39031296		0.74180237		0.03566773		0.30639491379832756		1.9239174370215881		-1.058030223532748
C		2.46218013		-0.63298035		0.3531986		1.565738398036927		-0.39169825327890107		-0.3255490664162768
C		1.3489056		-1.41069446		0.36127361		-2.7535780132064147		0.5747125616873205		-0.3754577261411288
C		0.06451117		-0.76986836		0.15230831		-0.8695525780998956		1.3139182333317423		0.46956796799041206
H		-1.33168603		-2.52962608		0.27556246		0.4499997649256584		1.4574286735524247		0.08767795890220556
H		-3.40101027		-1.34808816		-0.14478917		0.48210147864654873		0.5793586992953829		0.2784056795214489
H		-3.45353766		1.19763076		-0.29419344		0.6778220758409188		-0.12038814988800363		-0.4655705711221515
H		-1.10752193		2.47247546		-0.37651459		-0.7957635125757432		-0.37956079534771314		-0.4049604659819412
H		1.29744339		2.45963528		-0.7179441		-0.6056203065403082		-0.7689943695744889		0.8345101908939824
H		3.30857842		1.31325784		-0.28528559		-0.29361092627602287		-0.6136559293944106		0.6938720328152714
H		3.43345115		-1.18281228		0.40984618		-0.19607998598879586		0.6259152576135923		0.09879278627755654
H		1.31672198		-2.49261095		0.38615642		0.37148840571896297		-0.6394179198806236		0.33977210035609534
18
Lattice="50.0 0.0 0.0 0.0 50.0 0.0 0.0 0.0 50.0" Properties=species:S:1:pos:R:3:forces:R:3 Energy=-10478.704948029254
C		-1.17657128		-1.49772317		-0.13788632		2.514636452618433		-1.3908242985930401		0.6717557637122598
C		-2.36853421		-0.88243962		0.02578103		-1.5740318511121265		0.3381773993555615		-0.4093892939541124
C		-2.49511823		0.52017485		0.07847959		2.875134060976661		-0.002051431759167298		0.07786698934220139
C		-1.29992873		1.28198865		0.13039954		-2.52624529174769		0.22280500886047255		-0.4318296763167126
C		-0.02294939		0.74819484		-0.06329627		0.32890733847041276		-0.31514448056741146		1.422344377365619
C		1.18567098		1.51781437		0.17542479		-2.639514005668168		-0.6109222811327899		-1.3341467471003479
C		2.34645317		0.82935499		0.1851687		3.921807619174381		2.6683257872559114		0.9790233099102734
C		2.47410164		-0.51461809		-0.07154707		-0.01268638844778471		-2.887867603455708		-0.08530112833188844
C		1.32519305		-1.29534832		-0.20195605		0.40109404110672703		-0.9577548877728492		-1.2680877031131892
C		0.02724638		-0.68738098		-0.152562		0.4401087312144279		-1.3153669985190584		-0.29456362282693505
H		-1.07284626		-2.65622362		-0.0209972		-0.13151603846721555		1.8437978013898735		-0.4941144951866207
H		-3.24317156		-1.50841543		0.09417344		-0.8688442906117828		-0.3825926915715128		0.05337106145543833
H		-3.41868043		1.04242287		0.11853238		-1.3456392695243549		0.42544480451120886		0.28627181525773354
H		-1.50232189		2.32626336		0.36934764		0.5271963648397687		0.6489464280516192		-0.16395641789136647
H		1.03391643		2.59479631		0.08379407		0.466790096755089		0.41621418434795515		0.6193489173497213
H		3.32872486		1.39923658		0.43964273		-1.3293481944991994		-0.6262678072737129		-0.5858983000867827
H		3.46312469		-1.05208755		-0.15022422		-0.6066077644054331		0.7197537852849181		0.15179525438939154
H		1.46422145		-2.38452276		-0.55242504		-0.4412416106721462		1.2053273330097927		0.8055098960253168
18
Lattice="50.0 0.0 0.0 0.0 50.0 0.0 0.0 0.0 50.0" Properties=species:S:1:pos:R:3:forces:R:3 Energy=-10478.517346448503
C		-1.18010881		-1.46859404		0.10263321		1.251434462502236		1.7461066813781312		-0.2030733864812697
C		-2.33968252		-0.81166939		-0.17386118		-2.701335151801012		-0.030509223869041698		-0.09794319096184587
C		-2.40538773		0.61521837		-0.17366877		-1.6446328001867727		0.08764725993092609		-0.6159602034346182
C		-1.29979674		1.40029973		0.05321682		-0.2536899223177349		-0.27745092608803884		0.2962714523648472
C		-0.08278871		0.71269359		0.18042745		1.7701357483599593		0.3606615418933021		0.5435032264380947
C		1.16798567		1.38679474		0.22601062		-0.019198272747526772		0.9183496985229437		-0.3861857053407086
C		2.3664522		0.77368972		-0.0260872		1.7490012806952038		0.8840888752441272		-2.3062746155471046
C		2.4106626		-0.61871596		-0.3019931		2.562192912940879		1.720620621678996		0.5933857637552247
C		1.3249292		-1.29676752		0.06152087		-1.8579322351160996		-2.4341897212475074		-0.47732879134281003
C		0.02907009		-0.7005736		0.17483036		-0.5460632223948397		-0.8655288531356634		0.23697672358197122
H		-1.07291238		-2.50443126		0.14131542		-0.088599802215651		-2.365533811684831		0.04614687874671282
H		-3.35483291		-1.3510142		-0.36112329		1.6643049786617892		0.5477237950573651		0.3121961966171468
H		-3.41312068		1.04276051		-0.43142871		0.6793392837933486		0.001734723276570632		0.3681579530006096
H		-1.29542253		2.4922224		0.16820404		-0.22303671667384817		0.07908996025332275		-0.25050427412722576
H		1.22482823		2.47147828		0.17565513		-0.41277492254546894		0.6188152591856707		0.29715303220339845
H		3.20304846		1.44957498		-0.44789588		-0.7403811799919068		-0.8438761025035282		1.1318065363854142
H		3.33020923		-1.13174957		-0.67498407		-0.3671888013897151		0.30457482989809875		0.33163471324041505
H		1.48155262		-2.37798867		-0.03516781		-0.8215755881507772		-0.4523246077908439		0.18003763947968526
18
Lattice="50.0 0.0 0.0 0.0 50.0 0.0 0.0 0.0 50.0" Properties=species:S:1:pos:R:3:forces:R:3 Energy=-10478.203293222545
C		-1.15124065		-1.38835734		0.13398		-0.20837376698981555		-1.6739079459792048		-0.4135842543862854
C		-2.41788318		-0.81667249		-0.01131483		1.5838820042837134		0.8024258064081359		-0.02396401807283549
C		-2.49960783		0.59505731		-0.23400842		2.1705866023096285		-0.7199109311077488		0.31700117697610086
C		-1.30713446		1.34237047		-0.20664062		-1.5039829178778243		-0.9554956080372808		-0.6792694012104865
C		-0.04901333		0.68454104		-0.23574325		1.6681574681580806		4.656864970197267		1.2049244411505389
C		1.20657093		1.4374175		-0.1265082		-1.1594215723138828		-0.09375105874310734		-0.7501301345446028
C		2.37791271		0.77959602		0.06969642		0.006658282911522015		-0.9536507901250162		1.1810074228427778
C		2.46520007		-0.6096799		0.38827078		0.46119331947861214		-1.0171084948172244		-2.794488737600575
C		1.29117962		-1.37404705		0.18084893		1.5471717424824079		1.7227580825486335		1.4552638047235047
C		0.05224613		-0.65499728		-0.00379219		-0.2205950943048508		-3.8165372985347954		0.3090264892659955
H		-0.96044931		-2.51507518		0.24764055		-0.8055615237760112		1.2304435138137633		0.15012650561893742
H		-3.2383247		-1.46149362		0.16802583		-1.5424943916824414		-0.7028696081915258		-0.12687627719489625
H		-3.33430849		1.19819732		-0.50348721		-1.6887356005292478		0.14046095765152675		0.23468720767368517
H		-1.54302635		2.41011695		-0.16186165		0.9910550440810749		0.4552322168897149		-0.3708608508688883
H		1.32651913		2.52513658		-0.22552611		-0.7145071408316268		0.16145627721530706		-0.12218190569226074
H		3.23596697		1.38056324		0.22005294		1.5376168547933782		0.838957119432134		-0.06964562999854902
H		3.52621064		-1.07049487		0.26555685		-1.5529570844618694		0.366980747725064		0.9984444458764353
H		1.366086		-2.41009007		0.5289417		-0.5696922257308482		-0.4423478535015182		-0.4994802845585961
18
Lattice="50.0 0.0 0.0 0.0 50.0 0.0 0.0 0.0 50.0" Properties=species:S:1:pos:R:3:forces:R:3 Energy=-10478.719311373503
C		-1.12794178		-1.45604601		0.08144948		-2.774416546901801		1.5894997617616682		-0.1432746700643737
C		-2.38834559		-0.80435273		0.06099178		-0.866343532870974		-1.1483650061352817		0.42913382327098887
C		-2.51655856		0.6006553		0.01644853		2.980026120924904		1.434470933819569		-0.4626483067354839
C		-1.32361179		1.42039642		-0.05873703		-0.4905321772064134		-2.4404171901198684		-0.47527931362201564
C		-0.04105765		0.74143359		-0.09030689		0.4304173179496076		1.9014124171264948		0.9112944372893491
C		1.23932638		1.44755466		-0.0382782		-1.2698982739318654		0.9229042534377923		-0.6735842808307296
C		2.45750111		0.80074972		-0.00021367		-1.6604994375085098		-2.5870557886652468		0.5961373068945761
C		2.43980582		-0.67481222		0.06500614		-0.7238614824771226		0.7130729795100452		-1.170169914650191
C		1.25037875		-1.4066045		-0.04214695		1.2993879011467544		4.792080414680876		0.9033907634474797
C		0.00882688		-0.65864471		0.01863742		1.1520868321709012		-2.690335098469038		-0.6210727391490537
H		-1.05261937		-2.53089991		0.10998139		0.008015362561499055		-0.7329533144938379		0.05585217596839321
H		-3.34814436		-1.40794738		0.11951294		0.88688294442912		0.388703998004811		-0.10540638341681415
H		-3.42218142		1.18117908		-0.0770754		-1.0078597740879902		-0.20049739826310445		0.13633829663915095
H		-1.40718129		2.49308629		-0.27078703		0.10726462248737685		0.1919656553505361		0.30623622531362327
H		1.11043524		2.56789083		-0.09555229		0.565654976764193		-0.7193515104904135		0.1365143657809615
H		3.38023067		1.30584574		0.10939379		1.3492588170777722		0.9045798986415127		-0.03669046430726459
H		3.33231491		-1.30513315		-0.00909287		0.6202077172146097		0.39146999074370925		0.24949156802944059
H		1.42722222		-2.42710888		-0.0389097		-0.6057912848979368		-2.7111849964402244		-0.03626283843597479
18
Lattice="50.0 0.0 0.0 0.0 50.0 0.0 0.0 0.0 50.0" Properties=species:S:1:pos:R:3:forces:R:3 Energy=-10478.443530158567
C		-1.1692627		-1.44816977		0.32900296		-1.0994700295274016		0.007264549027744564		-0.12356351366602387
C		-2.39687237		-0.85894047		0.04246718		-0.8836415033008586		-0.802001522970905		-1.113618501476675
C		-2.48504393		0.50830069		-0.29926242		-0.4308525542861392		0.259534193980758		-1.1278605615795982
C		-1.29503668		1.25476334		-0.33631603		-2.225679994324589		0.4683194403142557		-0.20323017234966348
C		-0.0558315		0.74922013		-0.04661739		2.0788097908099594		-1.985665306715449		1.343186848522244
C		1.15250029		1.54731607		-0.08377603		1.856791590926952		-2.6153013105013496		-1.2015719283673967
C		2.43433133		0.84775058		-0.19680356		-2.183600909249623		1.9470286201887792		1.9111148347126785