18
Lattice="50.0 0.0 0.0 0.0 50.0 0.0 0.0 0.0 50.0" Properties=species:S:1:pos:R:3:forces:R:3 Energy=-10478.655950572831
C		-1.16335493		-1.45320937		-0.18099315		-1.6551521600790147		0.549307388892411		0.36956871728377894
C		-2.44053055		-0.78733383		0.03618818		2.664871510211191		-3.8828422942466276		-0.9593862012818438
C		-2.49963898		0.57117471		0.18227166		0.38294272155057363		0.43989656378478126		-0.8036979882330166
C		-1.31986368		1.26848419		0.04461258		-0.33820336749709606		1.4751986470934888		1.0166502213967177
C		-0.02739765		0.76244916		-0.00299621		0.4789098140747336		-1.6842891862117202		0.0946496592843278
C		1.17810741		1.49910652		0.14081901		1.2435917238043634		-0.018465816890065025		-0.6560094025945807
C		2.42488992		0.7987458		0.15981857		-3.144465494826751		-0.4169515767234116		-0.22594982793340068
C		2.51002675		-0.60962239		0.01534993		-1.7951396748016135		-0.881198852490612		-1.182831260553565
C		1.28045901		-1.3397311		-0.25501289		3.3292233711064814		0.5947440261126381		1.4032362989156206
C		0.04507178		-0.69143421		-0.1334819		-0.6242778763012294		-0.4403573054642853		-0.4717507831191255
H		-1.12798526		-2.58320521		-0.36248688		-0.017328000914352017		1.3246392705528922		0.2739663100264764
H		-3.24751529		-1.50916797		-0.04502852		-0.958900879856491		0.20119267596941873		0.2590312347879867
H		-3.44546843		1.08019256		0.21355704		-0.7566175933646836		0.5375514826645622		0.30810253764798984
H		-1.36024925		2.31972891		0.21647071		-0.22097685169643994		1.5282600448888852		-0.07999797103197058
H		1.20455449		2.64066804		0.08736511		-0.22445056628076415		-1.2372601252555524		0.3426429426803183
H		3.23897061		1.4347143		0.21075713		2.5064736630039053		1.2262756013864362		0.2815648453497991
H		3.47664832		-1.16531512		-0.0730794		-0.39919646415839427		0.46456280154236107		0.2579214952583685
H		1.40688953		-2.43960602		-0.32531298		-0.47130392539648136		0.2197366543943996		-0.22771082788388047
18
Lattice="50.0 0.0 0.0 0.0 50.0 0.0 0.0 0.0 50.0" Properties=species:S:1:pos:R:3:forces:R:3 Energy=-10478.091156862229
C		-1.17769057		-1.51951011		0.11798899		3.815619363298096		-1.05055062743986		0.2991183834300334
C		-2.32106077		-0.88656731		-0.09078061		-2.748683558458807		1.7225238550541981		-1.4480037294151926
C		-2.42546182		0.56944121		-0.28970001		2.1116207690381485		-1.184350936764992		2.8847911757258307
C		-1.39219413		1.39512374		0.19413034		-0.2874516944805263		-1.7554699704624925		-1.9137226017654345
C		-0.10129028		0.69252172		0.17128524		0.6069806772022818		2.219971888282919		0.30906850109101286
C		1.09126761		1.46385087		0.23245934		2.2048637778043028		-0.8382389589080321		-1.2105447697316154
C		2.38944478		0.86746589		-0.04592023		-2.02399680330151		-0.5314597680370556		1.4596108716163891
C		2.5460114		-0.55733846		-0.1947957		-3.157347184267701		1.6613008503517097		-0.11168368026768366
C		1.34613995		-1.29890092		-0.1547242		0.27293113248740297		-1.3240148010265642		0.5156781313845393
C		0.05866685		-0.71854859		0.04979095		-0.9572696177695592		-0.7819299493368804		0.1518426655309655
H		-1.01425122		-2.59923181		0.35480952		-0.5157779416077445		0.35749533124239696		-0.3705302070073692
H		-3.30650782		-1.38461969		-0.20575662		0.3608527805435337		-0.26932660017621957		0.2862115486005484
H		-3.42086357		0.81279846		-0.11189306		-2.481708283509932		1.4357849732032797		-0.5409026070520185
H		-1.55318795		2.50422337		0.30729411		0.5217295311150895		-0.8114939328540645		0.06959616197447727
H		1.03747591		2.56803403		0.27120391		-0.02497451302193552		-0.16092956102968642		0.29048132813357835
H		3.26155202		1.45849238		0.17671048		0.7993303010930921		0.7031958297556747		-0.4409129208489999
H		3.46102901		-1.00480183		-0.4853826		1.4338816369839527		-0.6389114125655436		-0.036548282304605106
H		1.37001833		-2.44471872		-0.18405651		0.06939962685181376		1.2464037392891498		-0.1935499690944561
18
Lattice="50.0 0.0 0.0 0.0 50.0 0.0 0.0 0.0 50.0" Properties=species:S:1:pos:R:3:forces:R:3 Energy=-10478.781707680371
C		-1.19586819		-1.38228211		0.0452679		-3.4458534424048413		-0.686962296018395		-0.09134522612957141
C		-2.48046267		-0.73999044		-0.12334312		2.2348324015308636		-1.2521523659160259		0.015033754176321032
C		-2.44579652		0.67676156		-0.20289792		-1.0189769668782136		-1.5345559565263598		0.6976486233473945
C		-1.25756002		1.35326478		-0.18073522		-1.2235288919209546		2.5399263371493412		-0.6919001509867059
C		-0.03744715		0.7204978		-0.07639459		2.3884826039788214		0.2766360406644784		0.4290056794913767
C		1.2217399		1.4070181		-0.0748557		0.8907301888750423		-0.6315956985856667		-0.2958086538028452
C		2.45571248		0.74090506		0.11082921		-0.8681502984570297		0.521621339095706		0.10546711287256129
C		2.46756442		-0.67057704		0.20237231		-1.9768544448479315		-0.45742228252923295		0.015503186184378338
C		1.29049685		-1.40725642		0.17111297		-1.5442201160980844		2.284132069770184		0.43853418766237245
C		0.00371339		-0.66980626		0.13211077		1.4536054432096643		-2.6580963963737947		-0.7430615549968348
H		-1.31831574		-2.49544332		0.11266406		0.8345121449323554		0.5061368705420575		0.011901996307253852
H		-3.35646289		-1.44580389		-0.24271919		0.40713068270535563		1.0882109118448307		0.26180164982425524
H		-3.37499332		1.19986214		-0.06070499		-0.8261508147347286		0.6916773906121957		-0.5137372570596281
H		-1.36285324		2.47014618		-0.32630864		0.5454288798325223		-0.7603591654722821		0.338031977762968
H		1.17027112		2.44631128		-0.38005099		0.2620326891508191		0.7860795555099773		0.3171977635208268
H		3.41654797		1.26603844		0.26306495		-0.2430939435524506		0.2141065041993961		-0.4023295590010849
H		3.30809108		-1.29407977		0.31763397		2.03353528735262		-0.43731229661456233		0.15834251706809555
H		1.25455908		-2.4870569		0.27571256		0.09653854590410751		-0.4900705099297853		-0.05028609766319579
18
Lattice="50.0 0.0 0.0 0.0 50.0 0.0 0.0 0.0 50.0" Properties=species:S:1:pos:R:3:forces:R:3 Energy=-10478.599981214076
C		-1.10831248		-1.53935946		0.12234475		-0.8059673466928245		0.2912568242573063		-0.06171341691202298
C		-2.3536706		-0.87581789		0.08503622		0.937582372630246		-1.171435051652517		0.8388237820242151
C		-2.47237094		0.51756125		-0.16273772		1.4436026693567416		0.7401925638668598		-0.3085333516871512
C		-1.32716725		1.38242733		-0.26719105		-1.0991250903325227		-3.6402076525559326		0.0889686012475041
C		-0.04743391		0.68447512		-0.16191448		-1.2650227939252998		2.635459221778219		0.28678994395892593
C		1.11951994		1.48070947		-0.10504539		1.5954461062186434		-2.1612449619135568		-0.6512516791110133
C		2.38663309		0.86579099		-0.00969488		-0.8477328600310026		0.4187267177410637		0.010064068951356787
C		2.4835208		-0.51013726		0.25977297		-3.684088309588647		-0.15851894616434314		-0.6335266998745885
C		1.28850743		-1.26844163		0.19717833		2.5040536893231966		-0.46754949777327176		0.7453230973031509
C		0.04263003		-0.71815537		-0.01953143		-0.8831762364798592		-0.42563084953313374		-0.07266657332304795
H		-0.90008645		-2.64352865		0.31021408		-0.7119603603449302		1.081829176785136		-0.10862555879203727
H		-3.25283302		-1.39365687		0.46881181		-0.04971875804824385		-0.14962190092016797		-0.6236465676405963
H		-3.51942233		0.76982121		-0.3141151		-0.3187248445092458		1.0198977303283479		0.1176950222115894
H		-1.38863855		2.44672314		-0.44957331		-0.04053097246300653		0.5782484969672026		-0.050374440766475716
H		1.04815699		2.52353748		-0.26872716		-0.1095051845922156		1.5879290748642958		-0.21568881248288083
H		3.28743772		1.42796034		-0.2052659		0.6467120880163362		0.663601304471848		0.3643385793125325
H		3.26397404		-1.02287886		0.71312726		2.5624043090395885		-0.8453428139906372		0.40053060956852093
H		1.32023321		-2.33500967		0.48233604		0.12575147100098175		0.002410512021218364		-0.12650665541004402
18
Lattice="50.0 0.0 0.0 0.0 50.0 0.0 0.0 0.0 50.0" Properties=species:S:1:pos:R:3:forces:R:3 Energy=-10478.59358894012
C		-1.14958457		-1.44600658		-0.24006354		2.437634948009237		-0.0281192806728012		1.3450241588133918
C		-2.33971395		-0.79164861		-0.18120172		-0.4804279990463497		-0.5605312310401446		-0.24133494906240605
C		-2.49654569		0.57440418		0.06038342		1.3586922458553075		-0.891743306349327		-0.2872880694778274
C		-1.36509282		1.3041367		0.2054434		1.1621735782517963		1.3696483333238918		1.506951462120692
C		-0.07835279		0.68034683		0.22554213		0.21303353144442583		-1.3885651217015966		-0.5058987349708762
C		1.09596659		1.43455154		0.21238774		0.19723780514679984		1.6352733677570952		0.7370845629906422
C		2.31647571		0.84152918		-0.07131068		-1.0005422089138651		1.1788976270427356		0.15546308725944433
C		2.4969846		-0.51682867		-0.19803826		2.2847118535242474		-0.7284947131475112		-0.9527755352001456
C		1.41901482		-1.31107054		-0.04897396		-2.0036491960362826		-3.3406312013936414		0.8797563607949146
C		0.10277687		-0.77632056		0.06912878		-1.726778053702307		1.5672680501284681		-0.922734097833163
H		-1.08076171		-2.51229768		-0.38485554		-0.24540150860465473		-0.8666777762768643		-0.2929945814355612
H		-3.20508032		-1.39497557		-0.32191104		-1.2705418724654227		-0.6785544802763183		-0.30562929071058903
H		-3.45060857		0.98658597		0.07293745		-2.170677207983656		1.0629950750838424		0.13289898341460227
H		-1.39806348		2.37830226		0.53362648		-0.009708433967489513		-0.45212323899431067		-0.6208776438441387
H		0.96595418		2.53879808		0.46142751		0.5178031995371274		-0.9125613226417981		-0.5817206688896535
H		3.13181212		1.45469698		-0.29136105		1.838895530488774		1.4905249413830572		-0.1208694089704232
H		3.50872681		-0.91899815		-0.55575444		-1.0927552337692528		0.32299395555546406		0.8091635364061349
H		1.50513763		-2.44981294		0.08971692		-0.009700926346372592		1.220400322219759		-0.7342191199829758
18
Lattice="50.0 0.0 0.0 0.0 50.0 0.0 0.0 0.0 50.0" Properties=species:S:1:pos:R:3:forces:R:3 Energy=-10478.307797812453
C		-1.1043295		-1.51476696		-0.11685523		-0.2942553989846418		-0.6836690728732516		-0.08843036651989583
C		-2.31684915		-0.90409226		-0.03566773		-0.5036918543169387		2.9040572741737223		0.18006838987302717
C		-2.49769601		0.50609898		0.11411594		2.110493083208737		-0.36176495650923957		0.04110695098444917
C		-1.29787761		1.26002368		0.16443538		-3.734304421824855		0.3836240124559029		0.0600869884989608
C		-0.09312265		0.66228724		-0.0191382		3.2169631980967304		0.2871121546022042		-1.1179788866837326
C		1.07967945		1.55813108		-0.04005316		-0.05382624955219847		-1.9988330570897785		1.0099641191494129
C		2.31357307		0.93424749		0.20029951		1.5275128823215642		2.2526694808634176		-2.2981688529998276
C		2.46144177		-0.48172192		0.05988096		-1.1957728566972623		2.5872218819269426		0.3025634045035134
C		1.38229303		-1.26162671		-0.14848083		0.2269479301654515		-3.305519240137241		-0.20063150700196014
C		0.06810911		-0.7822664		-0.21316082		0.08070682416277022		2.1879116207443587		1.4160872893852905
H		-1.12494215		-2.56641244		0.07914553		0.41312232999934495		-1.3208495673948453		-0.3574295110024678
H		-3.23353022		-1.38807952		0.01246096		-1.9128793827854669		-1.961051313773313		0.13464208848735137
H		-3.48990183		0.91291155		0.31649716		-0.19889503537526634		0.23858160615086912		-0.10798134319373055
H		-1.32565072		2.32820314		0.39177007		-0.06219627007837834		0.35303780975938154		-0.050701845038060876
H		0.89691967		2.6457713		-0.16829815		0.313063995342963		-0.30131837352760327		0.276626630427051
H		3.29826115		1.57833168		0.02945992		-1.7335161436547435		-1.0808510777353761		0.8260209226049933
H		3.42318235		-0.85018484		-0.04508165		2.4190690637856553		-1.142358652131433		0.19574435418721955
H		1.61270261		-2.37829909		-0.20276931		-0.6185417452355275		0.9619994704952813		-0.2215887742395314
18
Lattice="50.0 0.0 0.0 0.0 50.0 0.0 0.0 0.0 50.0" Properties=species:S:1:pos:R:3:forces:R:3 Energy=-10478.405163850523
C		-1.26955635		-1.51299566		0.10535591		1.9673520590846572		1.1956462555795238		-0.6004555774324914
C		-2.44070187		-0.81459343		-0.05665049		-1.438719938839371		-0.909727915579035		-0.8638633439551432
C		-2.43585731		0.61893914		-0.21351344		-2.0073521501749854		-0.22212078689758386		0.3133269677703049
C		-1.31889318		1.40863583		-0.1837805		1.1520211147750972		0.81717334538489		0.18982912007802288
C		0.00204637		0.78348138		-0.10551735		-0.8684718920355585		-1.2253246531856472		0.12329637605162384
C		1.26475432		1.38427333		-0.03397722		-0.218134342928624		3.581148951039677		0.3539968312239745
C		2.50544401		0.76371686		0.1470407		-1.1687413069113533		0.0590969081086513		0.5239058670639349
C		2.4695264		-0.62920667		0.22877095		-0.22704259818241215		-1.4578619044285208		-1.054549258437619
C		1.20818076		-1.34647552		0.09482679		4.298335335590857		1.1995306781765935		0.32257075198154445
C		0.02866781		-0.64240985		-0.00562086		-3.4433415774985443		-3.0166830580474544		0.660143684993069
H		-1.21614054		-2.65311977		0.24717797		0.09801621029051727		1.5183339927531296		-0.2436725445990779
H		-3.4760285		-1.34944176		-0.22739744		1.768176362092568		0.7875854506086691		0.6979425518563283
H		-3.50097622		1.01948122		-0.25343509		1.225292257286307		0.1996767535685501		-0.09062007220497682
H		-1.3963624		2.53525642		-0.14671069		0.06269840651815047		-0.8601639379387493		-0.23455824114107396
H		1.14588343		2.52640866		0.00452067		0.6882516013900698		-1.0708593082038165		-0.2004306524260513
H		3.42798151		1.31640255		0.38533325		-0.09244524688938763		0.14259584741804174		-0.38202571191099793
H		3.48274966		-1.13639678		0.20709855		-1.056285627220188		-0.06412223200518068		0.35629812278456047
H		1.37080373		-2.41785384		0.05886352		-0.7396086149257383		-0.6739243863517386		0.1288652311481933
18
Lattice="50.0 0.0 0.0 0.0 50.0 0.0 0.0 0.0 50.0" Properties=species:S:1:pos:R:3:forces:R:3 Energy=-10478.629528504762
C		-1.20623583		-1.40219425		0.35831186		-1.3570877746629093		1.6764428993915392		-0.3285020811962863
C		-2.41617471		-0.72869788		0.13434496		2.0363039540387655		1.3042233747887382		-1.44648898972176
C		-2.37270007		0.61751551		-0.47555712		-2.1415945863930164		-2.06233627030725		1.992597874908051
C		-1.20967642		1.3024373		-0.48518897		0.8449661988052924		1.7674310507194952		-1.0108464188968385
C		0.03662344		0.68520414		-0.1761423		-1.244179837932543		0.3910810856854403		-0.05343729307186705
C		1.24031393		1.42670918		-0.22690518		-2.3444001667730747		1.5256776289129141		-0.18168201419254063
C		2.37532659		0.72690025		-0.19724814		2.865538652702425		-1.9819245059387876		0.7986117806145528
C		2.36700752		-0.65846759		0.29274057		1.2207533346784416		1.423413133511469		0.11823109721257499
C		1.18970237		-1.28971267		0.57032122		1.301954324861305		-0.44566663341169666		-0.8342668102724318
C		0.01969779		-0.70145127		0.16396846		-1.832048117231581		0.6098049311379299		0.4019494985375564
H		-1.18272804		-2.39248657		0.79068374		0.00018985025454568762		-0.6905250221928108		0.19240150875181705
H		-3.35409496		-1.1760388		0.35253677		-1.2788969805934938		-0.6774588303918098		0.17866888702153327
H		-3.35019449		1.13002251		-0.63331001		0.42877335461325183		-0.19713490959984808		-0.23764351346569118
H		-1.2526426		2.37167931		-0.85880154		0.3383465265189419		-0.7825167264914367		0.42594658099654387
H		1.1118715		2.54995749		-0.23301536		0.5394210860109253		-0.8461082828121883		-0.6062852452297802
H		3.32659048		1.2086681		-0.48437582		0.12220396575704948		-0.09411980635289799		0.45672453656392137
H		3.29581773		-1.12537019		0.66441967		0.19536552785318972		0.09207752772084585		-0.5500666870664688
H		1.12086931		-2.30717005		0.89524804		0.3043907389145469		-1.012360592947584		0.6840872885071139
18
Lattice="50.0 0.0 0.0 0.0 50.0 0.0 0.0 0.0 50.0" Properties=species:S:1:pos:R:3:forces:R:3 Energy=-10478.177333544456
C		-1.15726686		-1.41758486		0.11516443		0.5118007536100246		0.02738955018464901		-0.3568955443060424
C		-2.35210318		-0.79384757		-0.07867644		-1.7116949343460395		-0.03897422094455687		1.1158512474280224
C		-2.41579655		0.61330308		-0.27604836		-1.37434044225578		-0.8320336015225227		-0.7746931168007936
C		-1.2544155		1.31407007		-0.3016684		-0.02047189439015613		1.5864571697488798		-0.36140834450618586
C		-0.0008983		0.73240459		-0.01632413		-0.7353627466517451		-0.36565004759312103		0.8922428202639143
C		1.17174626		1.47617109		0.03300232		1.5725739327976955		-0.5980870772362903		-0.9120970328399853
C		2.42502814		0.81904465		-0.0200512		-1.7699244551053743		-0.3480825227119019		1.643103713737918
C		2.3578944		-0.67055605		0.14128916		2.1793361690787125		2.561145908327443		-0.47094319962843206
C		1.2000098		-1.41552455		0.20546653		2.260601693949944		1.646454786703312		0.7933910014586713
C		0.03340663		-0.66075637		0.24972036		-1.5878649515524275		-1.5186683390031452		-1.8547987288969094
H		-1.03334173		-2.47759101		-0.14321588		-0.25955229454673845		-0.4030164034891583		0.8532452022809452
H		-3.24608663		-1.40262532		0.16589982		-0.22454358879172648		0.1674394912910556		-0.9580823948885593
H		-3.3420019		1.09875198		-0.68408193		0.3213605851639718		-0.3325792851054611		0.7092002811432129
H		-1.36769526		2.35764477		-0.66104114		0.581162636668004		-0.02536069271089492		0.3114119587428033
H		0.93621102		2.5281184		-0.0241855		0.7974346267610697		1.049959736520308		-0.062323436838803994
H		3.3190399		1.50410733		0.12655847		-0.3594103402698986		-1.2635043004213091		-0.4356503869784134
H		3.36435004		-1.08881478		0.23172227		0.1428860735384794		-0.642100197501862		-0.12908115238839843
H		1.27900482		-2.48055518		0.37080558		-0.3239908236580163		-0.6707899545354242		-0.002472886982963738
18
Lattice="50.0 0.0 0.0 0.0 50.0 0.0 0.0 0.0 50.0" Properties=species:S:1:pos:R:3:forces:R:3 Energy=-10478.225934564543
C		-1.16802558		-1.48777568		-0.07502809		1.4934602669735857		-0.019452554846315622		-0.06873947041414921
C		-2.43157065		-0.9221991		-0.16711984		0.24514193003343404		-1.1678716055692269		-0.7447714928393069
C		-2.51939762		0.49744384		-0.10939825		-0.598022182593485		-0.8025415574706989		1.0031688478635383
C		-1.36908038		1.22348827		0.12926551		-0.46139047166602504		0.6798826607272014		0.3398422914713323
C		-0.06664625		0.74272695		0.2502535		1.4670147744333584		-2.686958468738609		0.20322251046235926
C		1.1597452		1.49441004		0.26405629		0.770528958184025		0.170467428016047		-1.8779811316205859
C		2.40590557		0.91744364		-0.16035023		-4.021614757055721		-0.3633132748094483		2.1781739276233383
C		2.52758604		-0.47185556		-0.20054803		0.3173312551949331		0.38141461212090566		0.4179530213895214
C		1.38428066		-1.25466836		0.03396227		0.7493801437638473		-1.3173878855731331		-1.846529804145496
C		0.05265155		-0.7514775		0.1676122		0.03716030769182146		1.8471578217941322		-0.6597515917669285
H		-1.00528923		-2.52462434		-0.38451481		-0.1918824030314382		-0.49221851232222363		0.35086558757553177
H		-3.21265735		-1.71525341		-0.42772327		0.22056917758537867		1.4939210600751525		0.33953859277053405
H		-3.5016745		0.99153557		-0.01919399		0.08560313010462593		0.07864634212061267		-0.4192489087851893
H		-1.45536412		2.26918552		0.28823735		-0.37521048886489483		1.6529374632715854		0.0015377767774075808
H		1.18813449		2.60664485		0.18528697		-0.6024118783761361		-0.3006223244903524		0.3789295381091426
H		3.12476186		1.61420327		-0.40851745		2.40265200470751		1.5179866367213162		-0.5295147799471487
H		3.57195048		-0.83236093		-0.3917027		-0.8745566132625728		-0.5182552508880784		-0.13700380097130976
H		1.58279562		-2.26081487		-0.42260024		-0.6637532052443095		-0.1537926415609295		1.0703088350253465
18
Lattice="50.0 0.0 0.0 0.0 50.0 0.0 0.0 0.0 50.0" Properties=species:S:1:pos:R:3:forces:R:3 Energy=-10477.753972737995
C		-1.14417939		-1.49902406		0.12295829		-2.557747629908725		2.116687744805258		-0.2945999782250835
C		-2.38959867		-0.83038921		-0.10160241		1.3272150530828077		2.549251779595743		-0.34546102596847306
C		-2.46364535		0.70435479		-0.24212002		3.253739845780652		-4.690841789425202		1.548975782699154
C		-1.30186794		1.3839588		0.00200009		1.330855426571515		-1.927908303287918		0.30948810512056124
C		-0.05299127		0.67533953		0.24345319		1.2441286215583485		2.9240638503208167		-1.6776577456167945
C		1.19428182		1.48463484		0.04936127		-1.5895979779009373		-1.8928485868469611		0.8902707841691616
C		2.39287571		0.79686656		-0.19418768		0.6374909809346347		0.6708753151590824		-0.2657333292967116
C		2.44529466		-0.64959602		-0.13802465		-3.180731058632035		2.541572100257883		0.7457558653806852
C		1.30350887		-1.36517484		0.1300305		-0.6261799783910574		5.138513934694303		0.09233993450550095
C		0.03298153		-0.71728663		0.21507161		0.18863448272330857		-0.8016731416801334		0.35833721324874096
H		-1.0254483		-2.56166689		0.23494548		-0.31800025622733813		-0.9953179330577373		-0.15951504293595867
H		-3.34316286		-1.28031188		-0.32788613		-0.5164162950909326		-0.980816808604218		0.19014500580762045
H		-3.3139437		1.27073712		-0.15463322		-3.1222439133398523		1.1620319104697614		-0.5793779311467372
H		-1.25180488		2.43816823		-0.11319037		-0.005217642410072397		1.5773852380703302		0.14651935078256934
H		0.92530969		2.55762746		0.17855965		1.0915839934529505		-0.12360578260135337		-0.5321008468895532
H		3.32624399		1.35383135		-0.53312764		-0.8457732166532989		-0.43796494543111003		0.5737196530835765
H		3.23769677		-1.23516434		-0.37449733		3.488265176801762		-1.5141242741890353		-0.8313511279097571
H		1.24668753		-2.34879522		0.05444269		0.19999443907033324		-5.315280359671572		-0.1697545639643767
18
Lattice="50.0 0.0 0.0 0.0 50.0 0.0 0.0 0.0 50.0" Properties=species:S:1:pos:R:3:forces:R:3 Energy=-10478.495471575097
C		-1.1117774		-1.42516795		0.04820286		-4.142460049078858		-1.4860709680223505		-0.8145064429603225
C		-2.3588597		-0.78246422		0.21434308		0.3345389799052271		0.4902729585896298		0.5646733295921245
C		-2.47650962		0.64030779		0.19205861		0.6564181051468908		-0.8940588418212101		-1.2691789307003272
C		-1.31350184		1.30514641		-0.21174118		0.1687570273750127		0.22311765500013606		0.789508584322037
C		-0.00097913		0.6959163		-0.20339203		-1.1915337247134496		1.0894468411156881		-0.10097405874439659
C		1.17733915		1.54520735		-0.13785098		-0.19487712110409036		-3.296927333411612		-0.924833609220716
C		2.35091004		0.79804679		-0.00139588		0.8972483466664025		1.3881421752379894		1.4508013981445569
C		2.37439421		-0.62175941		0.18113028		4.566927731559493		0.9581361309438141		0.18811902796936325
C		1.32071621		-1.40677205		0.02391161		-2.2858226729171767		-0.733562408823495		-0.5602308747734053
C		0.04214579		-0.74585414		-0.14875254		2.7955236580293357		1.1076275226694974		0.7515723177079257
H		-1.16330559		-2.50339597		-0.18762165		0.27150915819462074		-0.13353152620473402		0.6563280651155503
H		-3.28760869		-1.31503082		0.42275787		-0.10893496534176679		-0.6347414432557188		-0.06574845472999308
H		-3.49299896		1.09944066		0.25096614		0.6472453862259497		0.03041440158589374		0.0645593195359603
H		-1.36192252		2.37338774		-0.41311276		0.05627543096437521		0.5903791671861479		0.04847218441046038
H		1.06512794		2.59601764		-0.35673844		0.24587608281895645		0.7743973885196744		0.26621664526162897
H		3.31475215		1.30977653		0.27503289		-0.5188162141672873		-0.10636807882865419		-0.647185736633514
H		3.42305315		-1.10001453		0.41962481		-1.727318756688913		0.8248961164110787		-0.42563028389044677
H		1.45679558		-2.49124495		0.10787596		-0.4705564028747234		-0.19156985973589952		0.02803751959351419
18
Lattice="50.0 0.0 0.0 0.0 50.0 0.0 0.0 0.0 50.0" Properties=species:S:1:pos:R:3:forces:R:3 Energy=-10478.319518251697
C		-1.19139935		-1.32148889		0.38282749		-4.479399308014877		-1.4205483589906145		1.1905322800473397
C		-2.50239807		-0.71016311		0.10656599		5.063959451770661		1.0613018494116646		-1.214158249481664
C		-2.44758112		0.61708493		-0.55239571		-3.4046904927943906		-2.5155690431429294		0.45964649241821426
C		-1.29809899		1.30067903		-0.44451907		2.3203915657720993		1.6789786241348104		-1.006384166584078
C		-0.00457105		0.72130088		-0.11744175		-2.1591766637179077		-0.5264090416416785		-0.3016244376432739
C		1.21021333		1.34679324		-0.26064146		2.6100293149712734		1.2730603708177752		-0.6487819288738588
C		2.43535615		0.64030607		-0.16994676		-0.7849500184863178		1.431471639183359		-0.5108021371573493
C		2.49278028		-0.6642209		0.27688674		-0.6463260111715017		-0.5640223777036375		1.1979971180083064
C		1.27563997		-1.24136835		0.60327521		-0.10921511273796529		-2.4074429982654793		-0.7315339627262404
C		0.01744725		-0.66942057		0.1958003		1.5032447027493687		0.07106189644239987		1.4980809506607382
H		-1.19621494		-2.35567874		0.92500755		0.053526561772270984		1.4685462262970852		-0.9892284295789157
H		-3.39138783		-1.21363802		0.34496578		-1.6750170170220111		-0.9854991987663041		0.18297898145151986
H		-3.40657197		0.98691433		-1.14166234		1.7448431384597411		-0.27730283054819826		1.4423561471410202
H		-1.27377306		2.32650688		-0.84175954		0.09423339768883826		0.16857504469602105		-0.03752643277642744
H		1.28437203		2.42190974		-0.53861684		-0.23218243901200575		-0.3237722798926264		0.004634002001325497
H		3.35301622		1.09557761		-0.5023882		0.6783552712064077		0.7612094292748044		-0.04317992858778079
H		3.4333251		-1.17047752		0.55205216		-0.009945283987109622		0.04947290916769593		-0.3271222729947088
H		1.34761544		-2.32350558		0.9597824		-0.5676811602907		1.056888036681727		-0.16588402532416704
18
Lattice="50.0 0.0 0.0 0.0 50.0 0.0 0.0 0.0 50.0" Properties=species:S:1:pos:R:3:forces:R:3 Energy=-10478.629769670111
C		-1.12536332		-1.38678967		-0.0031954		-0.8935529515708794		-1.0651592240038885		0.3063140268941021
C		-2.33693973		-0.75337544		-0.09606564		-0.341490522838871		-0.22210104082560508		-0.20900924083750672
C		-2.42046484		0.64961553		-0.10301504		-1.4844639771488926		-1.100498059399795		-0.04001865445487038
C		-1.32610289		1.41939466		0.05238835		0.9595990371983023		0.3099959494092647		0.6272631327143917
C		-0.08052783		0.78421096		0.12071426		2.9055983933851888		-0.598721934019232		0.04629271171580588
C		1.19366424		1.4728617		0.09142523		-0.4031110200840565		-3.7690342657352294		-0.4969549470719388
C		2.34286523		0.7067563		-0.118366		-0.14607331581292435		-0.5745454399843752		0.012612443521989288
C		2.42154029		-0.7512398		-0.16724535		1.4840147540113757		0.7599835787281863		0.9913142626978585
C		1.27399913		-1.44139921		0.1337149		-0.159248059587746		2.69642336781836		-0.7441569991930933
C		0.05613799		-0.67515905		0.11331523		-0.15769727302853992		0.37109374138970025		0.11651077211348886
H		-1.13297275		-2.48754458		-0.0409717		0.22259983483131834		-0.05075774081993821		0.13099045356696867
H		-3.18722696		-1.42627756		-0.12209246		-0.8230988124845129		0.10928813206663669		-0.26203443750094224
H		-3.36731654		1.13555327		-0.22261521		-1.1350383101659363		0.35231049610816423		0.07183070769801
H		-1.45645719		2.46983421		0.29396311		0.28540010845517166		0.6874642781919797		-0.43470272978962077
H		1.24302553		2.49782062		-0.04535544		0.11594816332828184		2.706334610400132		0.12242225241212706
H		3.25006114		1.27455721		-0.22070126		0.9753559398387825		0.3276783511779853		-0.2523317113823841
H		3.4436919		-1.28412799		-0.24959827		-1.3342447575513674		0.8465565289305184		0.03285324716351911
H		1.22149551		-2.47623954		0.32591104		-0.0704971793526326		-1.7863114836990517		-0.019195238845842538
18
Lattice="50.0 0.0 0.0 0.0 50.0 0.0 0.0 0.0 50.0" Properties=species:S:1:pos:R:3:forces:R:3 Energy=-10478.477780889449
C		-1.23355265		-1.41848361		0.03020323		1.508210582741712		0.4021395030582895		-0.1643838380744065
C		-2.45535857		-0.79209801		-0.00702643		-0.019655877681221807		0.8652694288306301		0.05024130904680649
C		-2.50713278		0.6304148		-0.09596848		2.029248024318359		0.8113658919185772		0.7876903516160562
C		-1.30228783		1.336566		0.06994553		-0.12500523403078484		-1.9212441582612774		-0.5993263489412067
C		0.02568624		0.66001759		0.07670958		-2.862150298741759		2.2362180718475604		-0.7440474702000862
C		1.14954837		1.47231498		-0.00446313		2.1438335544139195		-1.2125039503107569		-0.1436618267725195
C		2.39759647		0.80334595		-0.03726264		-0.14801213325533785		0.033481470500405536		-0.9889188173409366
C		2.53616779		-0.61584494		-0.07806235		-2.349793158416083		0.5079037840297185		1.9849322852153004
C		1.30383512		-1.3570297		0.05025921		4.066479786629813		-0.49036063320609796		-0.7318463517555919
C		0.10892753		-0.74992277		-0.03204596		-5.186669873420729		0.9636572149443724		0.8822044109217175
H		-1.24326621		-2.48043011		0.13896479		0.16770776019082936		-1.3461942164222578		0.10589849255440956
H		-3.41566689		-1.29047298		0.17051252		0.05090408800965573		-0.5732028099339451		-0.30965625526475526
H		-3.41054957		1.2388847		-0.1468271		-0.5387433432279046		-0.1890561950574172		-0.0039025231630501972
H		-1.40110363		2.41070296		0.14730135		0.45030896578713814		0.7583117960560477		-0.05266030570832821
H		1.06841079		2.54186016		-0.17106547		0.006928865804105818		0.5347722744556158		0.31719200424983296
H		3.33380913		1.33681988		-0.19967484		0.27123153047948206		0.6138014538311289		0.21851651169671268
H		3.52239199		-0.97070949		0.24505502		0.11669486309704075		-0.6667502373097717		-0.6344505486484693
H		1.26688431		-2.42059653		0.14654571		0.4184819487238272		-1.3276086889708216		0.02617892056851437
18
Lattice="50.0 0.0 0.0 0.0 50.0 0.0 0.0 0.0 50.0" Properties=species:S:1:pos:R:3:forces:R:3 Energy=-10478.223961646227
C		-1.15002273		-1.51187398		-0.07153789		-0.0017144629839674352		1.4891965552439241		1.163766890856644
C		-2.39442584		-0.92209327		0.10026618		-0.18492993450067027		1.3916024172419532		-0.9975806066494273
C		-2.49046461		0.53990297		-0.04570817		-0.8337497100124883		-1.2041198915615299		0.5638756191374205
C		-1.37660269		1.30536878		-0.19164013		0.7950201552410431		1.3028171356470641		-0.27756333471654293
C		-0.09374296		0.69367923		-0.23500364		2.2154603222122744		1.3649015113175629		0.3708261409767382
C		1.17642156		1.44176138		-0.24102315		0.32165471936115536		0.1306642834248822		-1.37919309086662
C		2.46274052		0.82768083		-0.04754356		-2.4460371073244453		1.023109655192766		1.0692973630570601