18
Lattice="50.0 0.0 0.0 0.0 50.0 0.0 0.0 0.0 50.0" Properties=species:S:1:pos:R:3:forces:R:3 Energy=-10478.452879268974
C		-1.09191227		-1.47530968		0.03482491		-2.0216783367720677		-1.2075348307284797		1.207201718607963
C		-2.36623789		-0.88879204		-0.03795832		1.0695264483452511		2.3128384361299155		-0.5970260858218697
C		-2.51351042		0.56879124		-0.20616881		0.8736508136326101		-1.660837948945583		0.3707021109621217
C		-1.37428913		1.36585251		-0.1595931		-0.08104677541759188		-0.6101763012729052		0.66930251995715
C		-0.08067922		0.74598188		0.05876235		1.1096082490928032		-0.052154569724184995		-1.9264406147816227
C		1.12503047		1.46527877		-0.34468168		-1.9648422510608583		-2.254340646470807		2.359514345055059
C		2.32947099		0.81601521		-0.18797199		1.049618911090425		0.6182481766810309		-0.4732575523928789
C		2.51814114		-0.51537981		0.28764815		-0.10711087052066731		-1.686924772600259		0.5206803153529687
C		1.38150492		-1.3590644		0.41519339		0.49133405284817544		1.9844647044014911		-0.6908423991622192
C		0.10178701		-0.7078141		0.17107946		-0.7486781811894152		-0.7627504970642084		0.23496714938163393
H		-1.21723092		-2.60931715		0.1836776		1.052995592242916		1.2061423726995406		-0.21211760166816157
H		-3.25029131		-1.50046035		0.04550045		-0.6390732892181196		-0.4847954290759622		-0.2154038314128125
H		-3.48592188		1.01824097		-0.4093586		-0.41200590560160893		0.053738883468104987		0.14994359734282176
H		-1.50774144		2.47863978		-0.19533919		0.459990608860094		-0.585680579074392		-0.2549430779795113
H		0.90081123		2.48450497		-0.55589038		0.6465254773517246		1.375186849403619		-0.7030293251174791
H		3.15858124		1.40218156		-0.58036272		0.8886908413005494		0.03136771520155531		0.27442077821436234
H		3.53539901		-1.00194044		0.57000384		-1.242615424526789		1.1276129643489272		-0.7792198523798596
H		1.51728618		-2.45725861		0.57136936		-0.42488996045743105		0.5955954726225967		0.065547805842334
18
Lattice="50.0 0.0 0.0 0.0 50.0 0.0 0.0 0.0 50.0" Properties=species:S:1:pos:R:3:forces:R:3 Energy=-10478.265275796788
C		-1.23732698		-1.35606041		0.3375422		-0.42610979462274323		-0.38392190046364477		-1.2861015200743655
C		-2.43793608		-0.7590958		-0.13195149		-0.5840699886565627		0.18897217140738265		1.322653659033654
C		-2.44746192		0.63487275		-0.51810766		0.9005971570610485		-0.7445569599947879		1.5259951601485102
C		-1.29047042		1.36241904		-0.38485		2.4726035959776054		-2.1091946247099473		0.006226543275236642
C		0.01321367		0.67265588		-0.08523898		-2.098076660588787		0.2704708439097382		-0.824378399086386
C		1.22353919		1.35687095		-0.30815959		-1.1163434079876802		2.1151861691598115		0.18448209975883975
C		2.41423201		0.75468343		-0.10276199		0.43249574629155824		-0.3986072701669032		1.041364435938558
C		2.39080294		-0.59013187		0.42352738		3.692183016392498		2.4893213712769264		-2.0298019941970753
C		1.33496021		-1.3616227		0.53155448		-4.542978317352391		-1.4280652875008375		0.09887120492278464
C		0.03231374		-0.75289835		0.26181885		0.27541096144879673		2.288971708599225		-0.018130339354676058
H		-1.07004182		-2.40840976		0.55060683		-1.0678669041239743		-0.7868073833818189		0.450587416255276
H		-3.45372554		-1.22440508		0.10338506		1.1519392508516852		0.03442054020476992		-0.6693647406527081
H		-3.28151602		1.31375193		-0.61822091		-1.3074977774590268		-0.4309579695141507		-0.4830986038594132
H		-1.35861565		2.41220818		-0.62878059		0.5150734079301902		0.8145471692337786		-0.012637074689900281
H		1.14982487		2.45477256		-0.54162229		0.15113283538097944		-0.6888562734223566		-0.15944994260490375
H		3.32167089		1.37633634		-0.22424585		0.13512175348583516		-0.6089994559517967		0.022719089941050253
H		3.3622082		-1.01869202		0.3343633		1.3426850206148466		-0.911826501369464		0.7671578820363404
H		1.37955202		-2.44909167		0.74659711		0.07370015677818563		0.28990354983995015		0.062905123209178
18
Lattice="50.0 0.0 0.0 0.0 50.0 0.0 0.0 0.0 50.0" Properties=species:S:1:pos:R:3:forces:R:3 Energy=-10478.305818326013
C		-1.23669485		-1.40292839		0.07411776		1.0522801056660611		3.0697927411594867		-0.4396280891967576
C		-2.47082132		-0.7675012		-0.1615727		-0.03283915751840928		-2.3832415645303366		0.41630628126179353
C		-2.52229316		0.62810904		-0.23745268		1.6440287966412976		-1.5188055330657475		0.43294064997582954
C		-1.36193886		1.33912099		-0.10394114		1.6712669602741095		2.539172901090402		-0.11581590578367418
C		0.01003851		0.82156173		0.07596007		-1.4409498565772838		-1.9768286309725835		-1.7209172241351773
C		1.29141545		1.43338671		-0.1596755		-3.1266274898970727		1.2369312811662188		0.7022786144278492
C		2.42294747		0.73539043		-0.00687446		1.6096364357267474		-1.8634645805483336		0.5636039049594628
C		2.50551798		-0.68720735		0.2522199		-1.2342411873914887		-0.12705023803214655		0.2135225038362121
C		1.34017823		-1.45032702		0.17362997		-2.1146961169047143		2.4160321796217983		0.15766117474070376
C		0.05199484		-0.62828839		0.09869322		-0.598342953419015		-2.9027774304615375		0.3218488376468839
H		-1.15574744		-2.43909732		0.26766001		-0.02172597564905652		-1.6925663384931253		-0.007202482598373859
H		-3.42348113		-1.40372622		-0.26036055		1.1326246099768464		0.776955738970421		0.209395986169153
H		-3.4565126		1.08274554		-0.33527852		-1.8239140211278968		1.2596587529034475		-0.39719192932017644
H		-1.55023338		2.44288944		-0.24826704		0.7284371204375734		-0.5106088930466822		0.3160045145617984
H		1.24649922		2.51264213		-0.32460647		0.46792816984111424		0.3478472153541551		-0.1728920296823752
H		3.33146377		1.29224032		-0.05539275		1.2612307767744433		0.5147118079870794		-0.06758813043601325
H		3.38657796		-1.17466279		0.68332661		0.6386109020326171		0.1256507866027151		-0.5965365477873964
H		1.25994823		-2.56704099		0.21269391		0.1872928296920649		0.6885898042947685		0.1842098713602577
18
Lattice="50.0 0.0 0.0 0.0 50.0 0.0 0.0 0.0 50.0" Properties=species:S:1:pos:R:3:forces:R:3 Energy=-10478.458251312213
C		-1.16585339		-1.38980113		-0.03069216		1.3330585019928314		-0.8933327108774289		0.5345932742562459
C		-2.37169056		-0.80933152		-0.16128492		-2.457480213146443		-0.36542240212267857		-1.6209537631840052
C		-2.42405823		0.57578332		-0.18199723		-0.05481962095450442		2.1846058506159793		1.3723744739643955
C		-1.32834363		1.32210613		0.33500918		-0.7691614398553716		-2.0459234278382255		-1.8982794765499917
C		-0.03322422		0.72809351		0.30928943		-0.008012997146626602		0.40159381213162676		-0.687380460230195
C		1.14626668		1.5041829		0.09281283		1.5153628259850773		-0.333378949598538		0.010012441200662348
C		2.33318249		0.78556709		-0.20246973		-0.0077156747815715744		0.5181541551133122		0.8885973045689626
C		2.46538741		-0.63885859		-0.11190622		-0.09176950956680231		0.1453135548403045		-0.250484065256685
C		1.32605496		-1.38587784		-0.05222473		-2.0216356050381763		-0.25188012282999506		1.435406403979562
C		0.05470388		-0.67890989		0.09040492		0.3305740303583691		-1.2907596390229774		0.08041104445958853
H		-1.18655294		-2.45365409		-0.09486788		0.5430875819073545		-1.4194449443746768		-0.10300281337402581
H		-3.27093507		-1.42467474		-0.52464021		1.001405739608498		0.679757139472774		0.6874339391751374
H		-3.33044353		1.09220257		-0.56702021		0.17408219331765684		-0.010515194705183797		0.4829127645257382
H		-1.36828099		2.37093899		0.29465364		-0.18457563649042655		2.0215358462370334		0.1791541056027611
H		1.15084973		2.64264191		0.12925374		-0.07571384474351855		-1.1906946709205402		-0.07825121499278789
H		3.27758305		1.30230307		-0.36498041		0.24220192503522303		0.595039702971695		-0.11664133273003585
H		3.41914037		-1.18994605		-0.06939688		0.24686678027401535		0.5063185961107369		-0.2784157068236256
H		1.2798382		-2.49417231		0.16159758		0.2842451175106021		0.7490334562188455		-0.6374869700137641
18
Lattice="50.0 0.0 0.0 0.0 50.0 0.0 0.0 0.0 50.0" Properties=species:S:1:pos:R:3:forces:R:3 Energy=-10478.224269118205
C		-1.13712066		-1.45012523		0.00652791		-2.666904018651378		-1.9129237600253564		0.25333495582067944
C		-2.36846047		-0.77588201		-0.09695203		-0.24283307942966878		1.8043297743796607		-1.2105849303623848
C		-2.40413421		0.70953898		-0.22423494		0.2094397463442934		-4.939216830212781		0.7142358894522313
C		-1.28781141		1.3888233		-0.13198803		4.047395053796165		2.153800178556944		0.09194290476136573
C		-0.00446726		0.74972498		-0.09866471		-0.7494325428454784		-1.4253163154646082		0.8065755154253574
C		1.19046558		1.47408546		-0.02838287		0.36558962666974854		-1.5790189684162599		0.277602312639876
C		2.33990869		0.70954374		0.27414476		1.3457830970330125		3.2967999095408747		-0.639692616538203
C		2.38122706		-0.68070624		0.22549612		1.32495937289161		-0.6333720737328175		-0.07529166961084789
C		1.24044075		-1.40655486		0.05104915		0.5505122592375518		1.4271275033480342		0.4872614255025583
C		0.0426628		-0.73440179		0.0370185		-0.6368345268854663		2.6973107069279054		-0.8405652415909661
H		-0.98170053		-2.60633587		0.11389184		-0.84299858500791		1.7558594925855104		-0.27912743958992214
H		-3.38764793		-1.13861286		-0.32540456		0.3842275532028159		-1.0068443426208953		0.4981612572348281
H		-3.26061749		1.26116949		-0.31622237		-3.1633951901421287		1.1518167120768796		-0.20253247780641437
H		-1.24776089		2.49192236		-0.01722686		-0.24820581078007425		-0.11763429275584225		-0.3921779182773849
H		1.14133845		2.54371547		-0.26588561		0.4333414335305232		0.21443539971079223		0.4277193565993235
H		3.25350101		1.38034166		0.41206256		-0.4718083244070011		-1.1911338153338173		-0.11575106256293145
H		3.29779364		-1.2941212		0.22659034		0.3643015554275723		0.5806909420891992		0.3225980570967026
H		1.2720516		-2.44797356		0.00580445		-0.0031376199841858677		-2.2767101178092957		-0.12370842103799293
18
Lattice="50.0 0.0 0.0 0.0 50.0 0.0 0.0 0.0 50.0" Properties=species:S:1:pos:R:3:forces:R:3 Energy=-10478.517346448503
C		-1.18010881		-1.46859404		0.10263321		1.251434462502236		1.7461066813781312		-0.2030733864812697
C		-2.33968252		-0.81166939		-0.17386118		-2.701335151801012		-0.030509223869041698		-0.09794319096184587
C		-2.40538773		0.61521837		-0.17366877		-1.6446328001867727		0.08764725993092609		-0.6159602034346182
C		-1.29979674		1.40029973		0.05321682		-0.2536899223177349		-0.27745092608803884		0.2962714523648472
C		-0.08278871		0.71269359		0.18042745		1.7701357483599593		0.3606615418933021		0.5435032264380947
C		1.16798567		1.38679474		0.22601062		-0.019198272747526772		0.9183496985229437		-0.3861857053407086
C		2.3664522		0.77368972		-0.0260872		1.7490012806952038		0.8840888752441272		-2.3062746155471046
C		2.4106626		-0.61871596		-0.3019931		2.562192912940879		1.720620621678996		0.5933857637552247
C		1.3249292		-1.29676752		0.06152087		-1.8579322351160996		-2.4341897212475074		-0.47732879134281003
C		0.02907009		-0.7005736		0.17483036		-0.5460632223948397		-0.8655288531356634		0.23697672358197122
H		-1.07291238		-2.50443126		0.14131542		-0.088599802215651		-2.365533811684831		0.04614687874671282
H		-3.35483291		-1.3510142		-0.36112329		1.6643049786617892		0.5477237950573651		0.3121961966171468
H		-3.41312068		1.04276051		-0.43142871		0.6793392837933486		0.001734723276570632		0.3681579530006096
H		-1.29542253		2.4922224		0.16820404		-0.22303671667384817		0.07908996025332275		-0.25050427412722576
H		1.22482823		2.47147828		0.17565513		-0.41277492254546894		0.6188152591856707		0.29715303220339845
H		3.20304846		1.44957498		-0.44789588		-0.7403811799919068		-0.8438761025035282		1.1318065363854142
H		3.33020923		-1.13174957		-0.67498407		-0.3671888013897151		0.30457482989809875		0.33163471324041505
H		1.48155262		-2.37798867		-0.03516781		-0.8215755881507772		-0.4523246077908439		0.18003763947968526
18
Lattice="50.0 0.0 0.0 0.0 50.0 0.0 0.0 0.0 50.0" Properties=species:S:1:pos:R:3:forces:R:3 Energy=-10478.237603944757
C		-1.08576261		-1.50453767		0.06949907		-3.241466170806049		-1.4596860506716829		-0.044040322536604844
C		-2.38122366		-0.865907		-0.02060215		-0.3603791833484184		-2.2703271486201024		0.3987542344213702
C		-2.54173259		0.52424862		-0.14985619		1.1666138219218303		0.24747587460367232		-0.23443601089864302
C		-1.41025887		1.27119191		-0.27730313		3.135590149692927		-1.1162589215390835		1.8244867600594057
C		-0.1038982		0.62942675		-0.03789606		0.2801019390953109		5.637060188910653		-1.6926243940016252
C		1.11784655		1.45013399		-0.13146464		-0.9371144832840621		0.05526719858602275		-0.47833697229910005
C		2.38941447		0.8985322		-0.04978514		0.32303786999679174		1.057193895109148		0.7921930730919604
C		2.54908767		-0.47167516		0.30232596		0.023807849269191054		-0.9566789839603197		-1.8655637834035121
C		1.40559845		-1.23783726		0.21929627		-0.8631653408795193		-0.4459628244913778		0.5931964277213035
C		0.04717476		-0.70013733		0.07884668		2.4452189308888883		-3.5422074345268353		0.5500949177787509
H		-1.01342024		-2.66798031		0.16101944		-0.15412127996201333		1.9126774483462465		-0.1058526240747089
H		-3.3377641		-1.47005596		0.08847846		1.0341132052249868		0.2166177006188812		-0.17375736014919396
H		-3.35786559		1.21448882		-0.08076303		-1.8755107128966195		-0.48345711847877737		-0.00882741977162514
H		-1.41052731		2.32375037		-0.06184391		-0.18108027321781323		1.1757207720249045		-0.5741176084248357
H		0.95682431		2.51842249		-0.44024673		0.3042018656791876		-0.566216659952276		0.3761260072646596
H		3.27950105		1.55594317		-0.16892255		-0.2825324028767578		-0.19824871147239945		-0.025977397505793743
H		3.50513222		-1.07371472		0.17882109		-0.5287215946339399		1.0400852607131847		0.6209095769449168
H		1.54211396		-2.32267307		0.28758598		-0.2885942412859842		-0.3030544337777975		0.04777294720533788
18
Lattice="50.0 0.0 0.0 0.0 50.0 0.0 0.0 0.0 50.0" Properties=species:S:1:pos:R:3:forces:R:3 Energy=-10478.422068646214
C		-1.11996444		-1.40020764		0.27591946		-2.8196936728843247		-3.3688301862632324		-0.5633430922587435
C		-2.37795517		-0.83883414		0.05086629		1.5977066715057733		-1.5732921447438601		-0.12499515530654569
C		-2.52488752		0.47876037		-0.29552813		-1.410630123008351		2.287330213521867		0.3585336455272796
C		-1.38303614		1.28447977		-0.3202345		0.7306193699235998		-1.0159423452851044		0.8170319347131672
C		-0.10225609		0.71647276		-0.06472811		2.5508677179080665		0.7161122290887746		-0.6407646122739867
C		1.21252378		1.45457804		-0.162111		-4.122771775498295		-1.0373471387321316		0.29734504218456675
C		2.40768224		0.82653239		-0.00749587		0.14312508328472218		1.7417793605572256		-0.4907802886577089
C		2.54686418		-0.53017665		0.11659536		-1.5860824057577831		-2.946370226788686		1.4972138718437964
C		1.30559257		-1.27603426		0.25357919		3.141546984250642		-1.0203715846337753		-0.48189332213777286
C		0.03175364		-0.69274091		0.17514567		1.597293546656093		1.7377262221732754		-0.07107680884050882
H		-1.14618629		-2.55027531		0.27301484		0.48228664949341205		1.2927779549739304		0.47866489079130964
H		-3.13413574		-1.57971762		-0.04633307		-1.532876254856605		-0.5094109646799716		0.1579619423839426
H		-3.59971023		0.86162527		-0.36762349		1.3007549052547833		-0.012582978680208497		-0.29201329421792965
H		-1.326315		2.34454389		-0.3457531		-0.661445485925918		1.54788316671633		-0.5519442608325106
H		1.08432461		2.50293175		-0.35648835		0.351211966588159		1.0632001976909342		-0.10104486692438291
H		3.26108077		1.47272382		-0.04778586		1.1261545318138717		0.4908435892165782		-0.0446470514513894
H		3.58859393		-0.91790113		0.33328245		-1.0920384616408365		-0.23243605262398287		-0.49794852416249463
H		1.31633437		-2.40597177		0.29603296		0.20397070147092908		0.8389307399140999		0.2536998981978492
18
Lattice="50.0 0.0 0.0 0.0 50.0 0.0 0.0 0.0 50.0" Properties=species:S:1:pos:R:3:forces:R:3 Energy=-10478.398635428599
C		-1.22768835		-1.47094592		0.16369304		0.5313268934276986		-1.421739551067145		1.0872887599990104
C		-2.43533717		-0.87950613		-0.05521522		0.8659844011868606		3.3914384102376527		0.4858782234448593
C		-2.4670778		0.63280976		-0.05519824		1.547470916041711		-3.3959326984953146		-0.7297156785981972
C		-1.29530262		1.3532043		-0.01832755		1.018053015260208		-1.0149213602352658		-0.03242351298766908
C		0.03920316		0.71291967		0.00214628		-2.382807459479179		1.4976855664226014		0.9260456786545992
C		1.2346387		1.49316953		-0.07112068		0.7176288713985172		-0.34425276176721087		-1.0176536715232627
C		2.50830107		0.82374871		-0.10031389		-2.905655060498003		-1.147148925780528		0.9771038785854014
C		2.42875008		-0.6440166		-0.03843052		0.6534901329112919		2.3918573310929396		-0.3477755329991072
C		1.2273247		-1.30693522		-0.00856219		0.8727168347124277		-2.3099452766305912		1.4303299151309006
C		0.00856648		-0.69315627		0.21058281		-1.0008810803053754		-0.17386807184963732		-1.6851831587673207
H		-1.2253406		-2.60552448		0.42201506		0.41562370480490307		1.5431772766717065		-0.7544615177084415
H		-3.33944429		-1.43642483		-0.19069764		-0.9278557866747136		-0.5244937755038647		0.012508519533788627
H		-3.38143553		1.03765443		-0.38355455		-1.666686488639789		1.1909770294654238		0.04058799953025766
H		-1.33459881		2.42592654		-0.04996495		-0.0347766379871992		1.057443240689942		-0.1624893464498203
H		1.0763958		2.59949712		-0.31571997		0.5161044717042681		-1.072186820167888		0.6474475777754822
H		3.39647017		1.41111243		0.10010384		0.7711673116672131		0.05139614572518869		-0.4638567766249958
H		3.3123904		-1.26300404		-0.0259739		0.8644780947116691		-0.1687166610559936		-0.09443188684987464
H		1.2409177		-2.42295234		0.09580068		0.14461791717955313		0.4492309022479858		-0.3191994187235477
18
Lattice="50.0 0.0 0.0 0.0 50.0 0.0 0.0 0.0 50.0" Properties=species:S:1:pos:R:3:forces:R:3 Energy=-10478.45502873075
C		-1.27519682		-1.2645362		0.42789048		1.3869301572261683		-1.4114245424510583		0.9750086866510937
C		-2.50858379		-0.67573613		0.27895064		1.0104338082677826		0.11535357002023422		-1.0090468009774627
C		-2.39769485		0.56010875		-0.40350949		-2.7133564987152		0.4645147219139753		-0.5610074507604446
C		-1.24518073		1.18344033		-0.71571841		2.1201733378860075		0.6114522883304071		0.10823500822777005
C		0.0190617		0.64310554		-0.31655174		0.2786415010998201		2.416790757886982		-0.43060418572453146
C		1.25527872		1.3626229		-0.49233535		-0.28108374053356683		-2.956900025359604		0.3988088960737488
C		2.4057994		0.66131774		-0.08969734		-0.4065756843853904		3.9594793192772144		-1.3144455151600498
C		2.44095711		-0.5531351		0.51085418		-0.9714968683184982		-2.059939076600205		0.6356311992021988
C		1.26399162		-1.29205722		0.57544831		-0.5712223406209516		3.1762918948253125		-0.5098088171771058
C		0.02524819		-0.62045424		0.261236		-0.7923651313129003		-2.505080639332279		0.11046986248367743
H		-1.13748529		-2.3225459		0.68283032		-0.453368989879095		-0.28088298880178286		0.45031842744662803
H		-3.50412985		-1.14532673		0.39229887		0.4315079284719963		-0.11856204960646884		0.18732306586478237
H		-3.33684246		0.94780976		-0.83358004		-0.07575225702416472		0.3733464905233383		0.2370191467834881
H		-1.11390563		2.12712573		-1.24776818		-0.7344012569281548		0.3347018335769893		-0.28703954665003234
H		1.36562594		2.28266348		-1.04489997		-0.22261485007355217		0.7351150979990115		-0.19483099551407748
H		3.24919315		1.28828368		-0.31913692		1.4634816673669107		-0.015863397731803185		0.28250262950260235
H		3.30184165		-0.97811989		1.00354302		0.9659780983107495		-0.21351787585059215		-0.17433709248119506
H		1.37026641		-2.25561404		0.93157405		-0.43490888083796136		-2.624875378619671		1.0958035850530345
18
Lattice="50.0 0.0 0.0 0.0 50.0 0.0 0.0 0.0 50.0" Properties=species:S:1:pos:R:3:forces:R:3 Energy=-10478.79447716866
C		-1.16625757		-1.47888358		-0.01287232		-0.9639526861151795		3.5583781305038076		-1.1588943419076378
C		-2.40937383		-0.79158824		0.00205751		-0.25989265717805965		-2.253811719136501		0.40712461490198715
C		-2.5346951		0.6037924		0.10927103		4.281905832373602		-0.11503706722588733		-1.1328575519197206
C		-1.29787871		1.34835508		0.04232846		-1.4922798221081062		0.7324840881740305		0.6933811578071747
C		-0.00868791		0.73758197		-0.03370356		-0.483815684520204		0.19866024223814407		-0.035487239468121975
C		1.23371653		1.46040032		0.06135893		-1.5367534269428695		0.8642210872435707		0.35833577343099254
C		2.42282941		0.79918133		0.12502746		-0.6076014443401137		-1.7313342027010914		-0.15345233035167075
C		2.45705034		-0.62543405		0.04805172		-0.9354496425903539		-0.1698097398373798		-1.0092192191528397
C		1.28043264		-1.34803907		-0.14402991		1.1006469776926346		-0.2554435174912228		-0.43002553325584164
C		0.03429516		-0.68851602		-0.18126425		-0.8820974530318325		-1.2571490991458358		1.6584066624111367
H		-1.21945874		-2.5308205		-0.11152022		0.4228111721610431		-1.6118433678027473		-0.01644636965373831
H		-3.30242339		-1.49413223		-0.04850374		0.4817674409289083		0.9602408873817364		0.16597586512769322
H		-3.41936298		1.10745889		-0.12924502		-2.041372472467748		0.9903330269022894		0.2132221989915353
H		-1.38494279		2.48141195		0.14967923		0.2757617627587942		-1.0647525783340759		-0.25922622724877686
H		1.12232212		2.55659108		0.20506742		0.34679959367597		-0.22056670932638134		-0.22178906317275335
H		3.37007052		1.24666701		0.18412496		1.5777232867088415		1.3461160034652793		0.24808486608920444
H		3.40917515		-1.1268145		-0.08790044		0.5722040392150827		-0.28050441957806527		0.3388890292777332
H		1.28850806		-2.44114946		-0.35444169		0.14359513235752883		0.3098189032482678		0.3339777080936436
18
Lattice="50.0 0.0 0.0 0.0 50.0 0.0 0.0 0.0 50.0" Properties=species:S:1:pos:R:3:forces:R:3 Energy=-10478.420104830104
C		-1.17293616		-1.42233383		-0.22631073		0.43173485403356465		-2.5051479508120194		0.5544314431488341
C		-2.44256026		-0.88355106		-0.21479978		-0.2814508426373593		1.8800826484685742		0.011102177547989598
C		-2.47733919		0.51887991		0.09328837		2.7214984109723757		1.2123106547780274		-0.012742695606161612
C		-1.27296952		1.33380179		0.20157018		-2.0317687338193964		-2.4951127810597566		-0.5824877832172028
C		-0.02133481		0.66885713		0.14404749		-0.9276198622522174		0.41224388690660285		0.9372197956679488
C		1.10973498		1.48852103		0.20087303		1.6008503592933274		1.3592857593000438		0.10106733836567122
C		2.34977695		0.89451774		-0.03619698		0.7728113778476937		0.7450547769813146		-0.26601460797828386
C		2.49451963		-0.53316176		-0.16078309		-0.9845962273497758		1.6343730188657517		-0.007936378273584057
C		1.35996386		-1.32725425		-0.06937668		0.45184232026717547		-1.812234322396591		1.3871428388764395
C		0.07491272		-0.78226632		0.11624996		-1.6071035391969106		1.8337669510908556		-1.8806796071914944
H		-1.170516		-2.51301787		-0.4467757		0.4641996589373768		0.17247437969119964		-0.04846699078215347
H		-3.39214566		-1.40955786		-0.56733613		1.1655664573539575		0.3179756764814896		0.6534820596474881
H		-3.34862711		1.08785182		0.26511387		-1.9139660338090476		0.5608318958392585		-0.13103657915698153
H		-1.2586945		2.44076691		0.15428056		-0.4101354280801845		-0.27449606011378136		0.40465779572239186
H		1.00591162		2.63577159		0.42934393		0.1821313401741821		-1.9229704997416697		-0.610540318052951
H		3.24968339		1.57556191		-0.18375896		-0.6884086443687759		-0.8040293005813477		0.34542976135450665
H		3.49360693		-0.86151953		-0.38404823		0.6937847181532403		-0.8204108784364058		0.04384790117893693
H		1.39981146		-2.43167276		0.15511449		0.3606297630587113		0.5060021961605149		-0.8984760998293314
18
Lattice="50.0 0.0 0.0 0.0 50.0 0.0 0.0 0.0 50.0" Properties=species:S:1:pos:R:3:forces:R:3 Energy=-10478.342894254032
C		-1.23029822		-1.32567838		0.42756854		-0.9243067901909703		-0.7399740201014701		0.28169838844596784
C		-2.46053916		-0.67673644		0.26290713		1.6292521013551375		0.3984206595022916		-1.3635750792168029
C		-2.41547154		0.59349794		-0.39906887		-1.4995568666970251		0.6467780625224528		-0.3656769927538421
C		-1.21926242		1.23267296		-0.63011384		-0.8508135043699995		-1.82150227497718		0.21679814063599945
C		0.01092615		0.59194266		-0.37413945		1.3120336147431455		0.47742891009838984		0.27165051744428115
C		1.22820342		1.27777116		-0.52357833		0.44803590493883433		2.2247709551046917		-1.2888830422761222
C		2.49227753		0.75895523		-0.13562673		-1.76915914055001		1.5216901565027054		-0.394871148797924
C		2.36230953		-0.45312755		0.50793317		-0.336724057604688		-3.171213040561778		0.937376992912842
C		1.201424		-1.29839634		0.68013141		3.1210095781529312		1.4117514839240817		-0.1780087305838687
C		0.06172361		-0.72026446		0.15247336		-3.6659267570420666		-1.4472055047398642		1.238267791991218
H		-1.28390381		-2.38360974		0.79242402		0.3167873126183935		0.5465359454148935		0.05592853773112353
H		-3.4048237		-1.15955521		0.45731292		-0.5938014597080273		-0.43761630384773514		0.2572472491755941
H		-3.32208346		1.14987776		-0.85691871		0.8001922377037896		-0.986033679683354		1.1800170339200937
H		-1.36264523		2.19210121		-1.02950639		0.6429709272852373		1.902990148846422		-0.9425611081382006
H		0.9817405		2.29150108		-1.00913748		1.2426413412462614		-0.8485288221355833		0.6109303029745313
H		3.46889433		1.31718053		-0.17506154		-0.8152709347626872		-0.4076574503130387		-0.15470831422688158
H		3.23367983		-0.91913147		0.90530356		1.4437783271220523		-0.33690424051149415		0.5795765231518984
H		1.31635266		-2.25763028		1.29170261		-0.501141834240308		1.0662690663776313		-0.9412071138119702
18
Lattice="50.0 0.0 0.0 0.0 50.0 0.0 0.0 0.0 50.0" Properties=species:S:1:pos:R:3:forces:R:3 Energy=-10478.716451468707
C		-1.18420723		-1.58706787		0.17895354		1.392002326621585		0.8209111636819298		-0.3798676307943204
C		-2.39053938		-0.99315625		-0.06211099		-0.29140070318802647		2.933770073139621		-0.08128758493602022
C		-2.47213541		0.48723782		-0.30534894		-1.5046104213058362		-2.4807400060740985		1.027161096648656
C		-1.36446823		1.27358279		-0.19517392		0.8067436655695515		2.1835460419089943		-0.36603432466577
C		-0.03880832		0.73610951		0.09941283		-1.375857135987585		-1.0644976277484752		-1.6850269385416141
C		1.1256309		1.55875046		-0.04716586		0.4576134183353398		-1.1461219243493832		0.8324270831443492
C		2.40346872		0.9762401		-0.04331261		0.49397107905446247		0.016688310457540434		-0.6850130398973053
C		2.51315061		-0.44571279		0.00240537		-1.7506927580172582		0.08379898704375502		1.1922981650937519
C		1.39709717		-1.24680303		0.2476184		-1.9168602217496202		-0.35189505726567394		-0.8227926455247174
C		0.04013671		-0.75119489		0.15992125		0.5474608740520855		0.8582016206137987		0.8100713414965329
H		-1.17813898		-2.68695782		0.26720102		0.5099122269446821		0.07819048553704075		0.1952812985149054
H		-3.34729573		-1.51227215		0.00184572		-0.17132473664112435		-0.4412396052117109		-0.18440301262679987
H		-3.53356122		0.87652522		-0.38284893		1.0838654904579446		-0.0033347721715986977		-0.3320350339965467
H		-1.47070469		2.41049532		-0.46487546		0.27399927156850346		-1.7150719754529677		0.702364283583882
H		1.01360553		2.64311825		-0.07136069		-0.11113079025227868		0.3440248077643937		-0.16742792132700554
H		3.33907853		1.59706792		-0.18407731		-0.8359764395825293		-0.41677859290534774		0.1795183280710566
H		3.36730639		-1.07148846		0.06539474		1.971751319370923		0.030477599300638227		-0.22230472361494844
H		1.46036446		-2.35164836		0.34988577		0.4205335347491817		0.27007036888741914		-0.012928843472211285
18
Lattice="50.0 0.0 0.0 0.0 50.0 0.0 0.0 0.0 50.0" Properties=species:S:1:pos:R:3:forces:R:3 Energy=-10477.978629637788
C		-1.09069078		-1.4440142		-0.01800839		-2.713807881579339		1.77436999524784		0.68726887435469
C		-2.44387515		-0.87480054		-0.06942895		4.246685164877192		-1.2571009166733254		-0.7498936444794198
C		-2.46689701		0.48706678		-0.15000713		-1.7484139893200232		3.9927016225828993		0.43885984358383434
C		-1.35704229		1.2783369		0.11898784		1.066462259066236		2.4863942217943267		-0.5025311041013754
C		-0.03926622		0.77789759		0.20131718		-0.5708404803852375		-0.752794003067486		-0.2606505155343691
C		1.16748473		1.51041194		0.21315304		-0.19141405088669225		-0.18738698348840105		-0.07866624245877875
C		2.3487017		0.82532986		-0.06480375		-0.21885713143834612		0.17398346295776315		0.7047134490846041
C		2.48894122		-0.60293929		-0.23934042		-1.0741938746871655		-0.26044652421265113		-0.2875304216581291
C		1.31411582		-1.34062376		-0.0210181		1.194078756850023		4.7165725152974485		-0.36316049986192533
C		0.08300873		-0.6376276		0.10400852		-1.1377017158902574		-2.05578720785636		0.08415462202762228
H		-0.99705525		-2.50482527		-0.03845658		0.2376218133553395		-1.3387223850607985		-0.151172687479374
H		-3.29158187		-1.38976404		-0.43120589		-1.2906543266390909		-1.3736145170002485		-0.026611328691611515
H		-3.41163489		1.12498295		-0.37873169		1.0085393166431964		-1.3144514801192937		0.3455919465394572
H		-1.32665187		2.43267324		0.05252096		-0.7909957103679367		-1.4281802672324635		0.14517486953789124
H		1.1390826		2.61589515		0.40509246		0.23160491782868978		-0.6640144807435908		-0.1312713208720414
H		3.1182663		1.52553466		0.16366487		2.01114077346972		0.28353060795293356		-0.5960323030430642
H		3.33748545		-1.20522001		-0.6883198		-0.11520547448039362		1.0787486867123262		0.9121204298783977
H		1.37879655		-2.3494879		0.02399945		-0.14404836641591606		-3.873802398512981		-0.1703639668264083
18
Lattice="50.0 0.0 0.0 0.0 50.0 0.0 0.0 0.0 50.0" Properties=species:S:1:pos:R:3:forces:R:3 Energy=-10478.552683357515
C		-1.13671715		-1.4016118		0.02772433		-3.030765349802362		0.1493571287206404		-0.5402308292282414
C		-2.40144694		-0.74307045		-0.07118722		1.7825042456177111		-0.9595855131958793		0.7796784857548035
C		-2.41797474		0.64609058		-0.18516098		0.04896228808762045		-0.4034330764611474		0.3077011370285468
C		-1.24617152		1.38921091		-0.16855429		-1.646594603291099		-1.313654438151401		-0.9576823312427399
C		-0.04138556		0.7034359		-0.14238081		2.4233353466184386		1.5455952448919794		0.8897725043840727
C		1.18364018		1.4926643		-0.04516371		-1.458720909981659		-3.0720656991636655		-0.6822184050696253
C		2.31919405		0.75859097		0.144776		3.5091885054781193		0.9771041356957137		1.0323625925311206