18
Lattice="50.0 0.0 0.0 0.0 50.0 0.0 0.0 0.0 50.0" Properties=species:S:1:pos:R:3:forces:R:3 Energy=-10478.066959977596
C		-1.07752258		-1.44519018		0.23486494		-0.21539822640800604		-0.969442916878271		0.11677616137776577
C		-2.34287934		-1.00436934		-0.03884263		-0.925186107458774		0.809368350480852		-0.6811280002354863
C		-2.49625633		0.40527529		-0.23488609		1.7428736734681107		0.3014647207173208		-0.16140608928236108
C		-1.3225114		1.30701063		-0.23011205		-3.5677593658879627		-2.974974366088278		0.12578001024563853
C		-0.03972489		0.71954944		-0.09685793		-0.45158947798613513		5.429001999118062		-0.4018104532807061
C		1.16386179		1.56294692		-0.06105191		-2.12564382257712		-0.5112670440239115		-0.12214246497036568
C		2.3415252		0.92675009		0.01612411		1.3286278228264121		-2.0139748490192955		-1.134357173526794
C		2.44515671		-0.58490551		0.10661457		2.6297740499763997		4.561198079673659		-0.04356127460287039
C		1.31344319		-1.26692346		0.24849954		-1.2326770310960473		-1.8900387310887974		0.3133418801684139
C		0.01904813		-0.61131099		0.05976149		2.444943257212122		-4.06137887230149		1.7442840263747803
H		-0.84295984		-2.42125368		0.67296941		-0.24520888155873702		-0.5353178111160912		-0.48786105817272546
H		-3.18464777		-1.71419493		-0.25475633		0.2793468575303736		0.4868343138518929		0.7502255738924999
H		-3.55069635		0.69888542		-0.36353746		0.23695301801118426		0.7287891044550069		-0.16485517269877425
H		-1.62292307		2.33411368		-0.32316927		0.5583242989641446		1.1228719530356543		-0.07186675456378369
H		1.06380309		2.66106164		-0.12679498		0.010616341902012444		-0.18247813056330886		-0.13507243972795074
H		3.21431354		1.51359069		-0.29721477		0.5676641395880307		-0.07174082193285673		0.651231058863973
H		3.54308435		-0.81134785		0.12807956		-0.9048938817547996		-1.0155359567256041		0.14270074842542885
H		1.33078774		-2.3661085		0.51600063		-0.13076661332914707		0.7866210298275196		-0.4402784754425577
18
Lattice="50.0 0.0 0.0 0.0 50.0 0.0 0.0 0.0 50.0" Properties=species:S:1:pos:R:3:forces:R:3 Energy=-10478.521206694671
C		-1.17901603		-1.42817017		-0.04512284		-0.9194839149542856		-1.352019873298676		1.4825320502628467
C		-2.42773062		-0.79865457		-0.00540414		-0.04477540091925128		-0.06633955133779444		-1.4817454469736309
C		-2.49445224		0.62829894		-0.11047827		0.15141966764529574		-1.513466226055931		-0.38202288369756354
C		-1.32797099		1.32157734		-0.30623795		0.6587071068345526		-0.0038782005275138725		1.594238819036568
C		-0.04489442		0.70514819		-0.20081112		1.9285916510757453		1.810046879282258		0.18471339619571583
C		1.23108303		1.45455371		-0.09666867		0.22535708581960107		-0.24933704473179436		0.328530723285068
C		2.48077643		0.76156416		0.0018185		-1.2835147846451491		1.106596973116044		1.2395340088568554
C		2.47711795		-0.61942454		0.31645067		-0.8417942803054559		-0.9470797704534626		-0.4532133867181375
C		1.24839711		-1.34391277		0.30367679		1.9792599175070298		2.314899380970635		-0.1548769271696376
C		0.02798662		-0.68181362		0.01001052		0.0034850274380619963		-1.4088252086165434		-0.4748403234749256
H		-1.08850937		-2.54686529		0.18266873		-0.2581829764458996		1.1033792889806318		-0.6162688386534111
H		-3.38254993		-1.34915122		-0.16219474		0.3906708918933192		-0.13679657005965776		0.6151893352965103
H		-3.47043069		1.1013147		-0.0594749		-0.35796311774445605		0.4321429909431879		0.058390883191286116
H		-1.33390307		2.33764016		0.01698949		-0.06388224523975145		1.765181541175791		-0.6453390161049389
H		1.25969		2.57005847		0.1527575		-0.30997044406629215		-1.0257649362312211		-0.9155384029470317
H		3.4245744		1.33349485		0.20959627		-0.5831477853886802		-0.18877100829909912		-0.44452002426330556
H		3.45011944		-1.08946832		0.60159236		-0.5668793874930628		-0.025784204817189148		-0.18336917206134992
H		1.24481705		-2.34709335		0.64072254		-0.10789711385544619		-1.6141844600396655		0.2486051545170195
18
Lattice="50.0 0.0 0.0 0.0 50.0 0.0 0.0 0.0 50.0" Properties=species:S:1:pos:R:3:forces:R:3 Energy=-10478.363252745796
C		-1.16856404		-1.49027641		0.08037879		-0.5117030002693173		0.30131323132135884		-1.190606893459947
C		-2.39461313		-0.84666439		0.23942118		1.3896367060608807		2.318194146777652		-0.4955045878006872
C		-2.39242703		0.62758061		0.05459609		0.16994246018054945		-0.8805386446308852		0.8612196843028007
C		-1.25341183		1.42242978		-0.21927669		-0.8360792837074188		-1.3192632996125524		0.01856696408689367
C		-0.01129534		0.7480176		-0.18263221		0.797793964133433		0.705462462846173		-0.27743436818393175
C		1.23017913		1.49856779		-0.07937666		-0.7199407044819044		-0.47411984895801335		-0.48741363480739447
C		2.38487018		0.78844973		0.07320039		0.5903897087089491		-0.9863348587030922		1.0395392098320848
C		2.32745781		-0.63967221		0.11272815		4.543441938667392		-0.15964766043500347		-0.6798734047559614
C		1.25664272		-1.40677576		-0.03796704		-3.609445483561725		-0.8645319336110486		0.5786724204499964
C		0.01441782		-0.67741757		-0.11849312		-0.4272529584929505		-1.9926820528242728		0.6559465134122109
H		-1.109807		-2.6099787		-0.10067842		0.10900721333950152		0.9370631126436799		0.6658841869340786
H		-3.32610848		-1.35412584		0.49609087		-0.242939728787179		-0.13473500815418887		-0.04784843479300665
H		-3.30998724		1.0937815		0.40236499		-0.6756538131558772		0.5319882839948618		-0.5205733060410213
H		-1.20232826		2.49981477		-0.48965437		-0.6096781757540037		-0.24778918923014767		0.537886240291077
H		1.26299673		2.59348019		-0.11771147		-0.3210649083049151		0.1791185215355494		0.13132366853161007
H		3.34328473		1.19048868		0.45407621		-0.11609214510312689		0.4399070024634575		-0.6896127948050425
H		3.31494452		-1.18680925		0.07221295		-0.40026352337618337		0.5219375333576782		0.6308773837953772
H		1.10746373		-2.51548752		0.2064562		0.8699016824818323		1.1246582012187945		-0.7310488469891375
18
Lattice="50.0 0.0 0.0 0.0 50.0 0.0 0.0 0.0 50.0" Properties=species:S:1:pos:R:3:forces:R:3 Energy=-10478.45071154877
C		-1.13097203		-1.47455255		-0.21362453		1.3163902461396444		1.8767130121386384		1.1334388269135949
C		-2.32631636		-0.90740906		0.06104612		-2.0372670378462914		2.0075860177149836		-0.5688312147172748
C		-2.41301398		0.54872502		0.15460049		-0.9754705081939091		0.10736134738683527		-0.061282962827298726
C		-1.33841022		1.39088189		0.03096341		0.6756199260167264		-4.166694032979527		0.694345681432449
C		-0.0593586		0.79853304		0.05127973		0.9920978320853904		-0.32034448521006537		-0.774745772992737
C		1.17411285		1.47352471		0.02437808		0.7819826569508862		0.7975157193535449		0.47977252201636766
C		2.37458471		0.76839091		0.12550293		-0.06454260736566578		1.3024487479917106		0.058044298490409096
C		2.3965234		-0.63006936		0.11538136		1.6794977812772516		-1.6891974220720634		-1.3859375057327368
C		1.25940627		-1.35501945		-0.24872339		0.6636966409756203		2.8162738486214423		1.8587588447698977
C		0.04015908		-0.6103035		-0.07578974		-0.7750566193602149		-3.633105391557262		-1.5905506744518496
H		-0.94197589		-2.52314311		-0.30499885		-0.1063048811139097		-1.100159907917159		-0.3506725491531146
H		-3.29662275		-1.41669114		-0.03609753		0.05960876331822547		-0.35840524463735524		0.347862590550826
H		-3.34558757		1.14031229		0.29669794		-0.25739920137011807		-0.9528456234712576		-0.1603401613499457
H		-1.42669594		2.39434365		-0.00011253		-0.4655091731795926		4.02776437292554		0.025964850522557245
H		1.22114101		2.58356219		0.00518682		-0.1553947987605178		-0.28005365377867536		-0.04098374372283177
H		3.29439743		1.3853185		0.11840173		0.022644785060817716		-0.3989663504289543		0.24875042184342566
H		3.38464089		-1.20023911		0.12078282		-0.7918907627868484		0.7752935208018974		0.10969374929520019
H		1.38826745		-2.39565627		-0.4973347		-0.5627030418474949		-0.8111843206160853		-0.023287200886938864
18
Lattice="50.0 0.0 0.0 0.0 50.0 0.0 0.0 0.0 50.0" Properties=species:S:1:pos:R:3:forces:R:3 Energy=-10478.469717468262
C		-1.13273924		-1.44308441		-0.06228105		-1.2393046150362896		0.44426723340432767		-0.6736946839987983
C		-2.40100721		-0.84332283		-0.05398866		-1.124620200314648		-0.06893184034975469		-0.2832924209596899
C		-2.53158655		0.57728439		0.01737477		0.6973203963228103		-0.0803270722316164		0.816775184355381
C		-1.38131683		1.30738845		0.16700209		1.7262874358045228		-1.1489150679372524		-0.7948186321783225
C		-0.05369494		0.73722657		0.07203376		0.35351423516793135		0.44908378372733165		-0.175927988249108
C		1.20114939		1.41653154		0.13150866		0.2865566420616146		2.3963141840891438		-0.9215254222554012
C		2.46897027		0.79943526		0.0366876		-0.9882423601094769		-0.8462220284143159		0.8267057102105689
C		2.50958519		-0.62393504		0.00295671		-1.0438868937897188		-0.5228400419756444		-0.5365474668953304
C		1.25009051		-1.27289582		-0.17323779		5.3538929292509545		0.7662571217684973		0.4046946653411647
C		0.07452524		-0.65510526		-0.14315445		-4.570345961738439		0.5108991191671199		1.2468074024793405
H		-1.01407358		-2.52693063		-0.01976674		-0.13386201580006588		-0.3972770328335224		-0.2117805814708992
H		-3.44149555		-1.2998407		-0.16059042		1.4531983861633524		-0.5532969696071799		0.36161110169840516
H		-3.48412706		1.11435773		0.17803372		-0.08991060200942784		-0.37741155882577604		-0.4465301641063298
H		-1.38916795		2.34701967		0.15977889		-0.2956695571239324		2.560052366747495		0.4346540845185481
H		1.18467003		2.56670136		0.04983911		-0.011370652136013173		-1.3043840173118153		0.4825112610621703
H		3.39321651		1.37118912		0.12019727		0.19519609215743458		0.3636428902297187		-0.08373249831701407
H		3.42884985		-1.2786515		0.0710467		-0.574243798166075		0.8615529506895045		-0.20230339251822338
H		1.27485139		-2.28815955		-0.337186		0.005490539295466211		-3.0524641231803855		-0.2436061072943994
18
Lattice="50.0 0.0 0.0 0.0 50.0 0.0 0.0 0.0 50.0" Properties=species:S:1:pos:R:3:forces:R:3 Energy=-10478.620123762612
C		-1.21275562		-1.32588668		0.32681805		-3.005393035705355		-2.3344947348843594		0.07150983402835531
C		-2.42838437		-0.7715698		-0.09570326		2.0591430630735617		2.014460273288773		0.29097076332392663
C		-2.41809142		0.62893464		-0.42736563		0.4367232568892588		-0.5061440182087373		0.4509278303086596
C		-1.24300196		1.35285207		-0.50273477		1.4033866570262084		-1.4885708515880975		1.139133563219029
C		0.01433301		0.672484		-0.1401478		-1.5311224539948673		-0.3327242438994925		-0.9144293319042254
C		1.22259244		1.31631538		-0.46301476		-1.2938420831341602		-1.8463055525311747		1.8551200139430637
C		2.39974656		0.76062715		-0.12025072		1.9779808965478436		-2.175755445182441		0.41182016911205893
C		2.44109858		-0.60399109		0.41866116		-0.7733661190573466		0.6145692366454901		-0.2660708637145983
C		1.23073437		-1.31553081		0.64739448		1.8454270065943077		-0.521506873584704		0.5034845205611619
C		0.01180376		-0.72489482		0.37163846		0.15005667445813756		4.366370889392202		-1.8010892074264604
H		-1.26653999		-2.385534		0.60524233		0.09401305415126288		-0.35205703676237454		0.18400140631910705
H		-3.34665781		-1.31289038		-0.08271051		-0.9459276077223275		-0.7442635457064787		0.03141317230475638
H		-3.31855551		1.20366679		-0.4780607		-1.2741055756590252		0.27536103062616296		-0.510941799478949
H		-1.22895201		2.43721555		-0.70029423		0.007847109573180126		-0.10685648557775358		-0.17586309360630278
H		1.08026129		2.26641207		-0.80313924		0.1496765111504842		3.2767625830004383		-1.4288697342457217
H		3.34344963		1.29953724		-0.33744057		-0.06829744636537491		-0.26336657745063363		0.15804262359991827
H		3.44774745		-1.03128501		0.56516791		-0.24411693406272464		-0.2057001282750679		0.22960562804084136
H		1.07395949		-2.35009722		1.04957597		1.011916974814874		0.3302213778541236		-0.2287654943846205
18
Lattice="50.0 0.0 0.0 0.0 50.0 0.0 0.0 0.0 50.0" Properties=species:S:1:pos:R:3:forces:R:3 Energy=-10478.624982544841
C		-1.11395501		-1.46192047		0.14980004		-0.9654525648325653		2.0782965986267614		0.11785648748766564
C		-2.39470444		-0.8528674		0.04289668		1.0414769474111871		-1.843247533899653		1.8376348672058807
C		-2.47404263		0.52642783		-0.04361451		0.5884583474655901		0.8013248086291332		-0.6514482142336768
C		-1.36197994		1.33624435		-0.13647569		0.9117178979735807		-0.2852530413565799		-0.15724316479509112
C		-0.08710677		0.70690787		-0.05635771		1.8279498302768036		1.9356765314173083		0.2301067360393646
C		1.1655433		1.45858398		-0.14346635		-3.1761527467243367		1.3726558040680303		-0.427128465679772
C		2.34459672		0.85969467		-0.14979572		2.850350375228458		-1.3839315824988332		-0.6990122850213646
C		2.46760824		-0.59003971		0.01323386		-0.6311168049181195		3.379169877469292		0.08007361288582668
C		1.3555423		-1.33465596		0.17205346		-0.39925637086114224		0.16047905234060875		0.1511043989804475
C		0.08719253		-0.68020817		0.13512404		-1.9131125818386534		-1.6687244478185959		-0.8790737329159617
H		-1.03217079		-2.48684781		0.38797824		0.04878344215443792		-1.7921187314771143		0.1754924433802017
H		-3.27749303		-1.41647918		0.4445913		0.285003027288974		0.06949470624527394		-0.9579899380202839
H		-3.39701437		1.02084821		-0.13790045		-1.9478035506698201		0.6564443818208001		0.06293618213489456
H		-1.43720995		2.43219782		-0.31274907		0.051692799603431934		-0.4108063831509624		0.1910237060106748
H		1.16597312		2.54923801		-0.30848329		-0.41282310501797953		0.028392691778819458		0.04257751912624158
H		3.22543509		1.51421465		-0.43773644		-0.38950793052907073		-0.864000229485371		0.6764010785673231
H		3.44986541		-0.8293909		0.23664572		2.444343470275768		-1.636494796006343		0.041216531399518745
H		1.43743438		-2.40445602		0.32608367		-0.21455048228654336		-0.5973577067025753		0.16547228887017265
18
Lattice="50.0 0.0 0.0 0.0 50.0 0.0 0.0 0.0 50.0" Properties=species:S:1:pos:R:3:forces:R:3 Energy=-10478.210461243738
C		-1.15961806		-1.43576105		0.35653828		-1.6447275710478584		2.0400338019161266		-1.4608179016881524
C		-2.358307		-0.89347307		-0.06216946		-0.8698203842011073		-0.6012470143955773		0.9140210921504771
C		-2.50272997		0.51285963		-0.29807214		0.8891878869561395		-1.3171236275942302		-0.6332043863871855
C		-1.31351357		1.21991687		-0.29155034		1.110675359732655		2.683794572080514		0.7121021823931524
C		0.02216364		0.67914342		0.03477147		-2.5316224453954654		2.909094425144614		-2.113653688854836
C		1.23289558		1.49864972		-0.16321735		-5.060679392673504		2.2293549234392582		-0.5699336008919635
C		2.41278897		0.92158469		-0.07318726		1.231730813725003		-2.4647477446538093		0.9179941663832014
C		2.41177244		-0.52423295		0.11478087		0.5483657480849242		1.3088114054662383		-0.25577966351342346
C		1.26953053		-1.28646567		0.24128791		0.9294098128238537		-0.7841744709405275		-0.19246450077831176
C		-0.018127		-0.69637385		0.21683803		3.4251505086881218		0.2819878946575313		1.0304562738321723
H		-1.06932557		-2.43029925		0.59300344		0.12117115363284847		-3.0315895940412876		0.5911135770819825
H		-3.12052181		-1.69214644		-0.09878593		-0.7425018772691871		0.7310699300347397		-0.12596944912368463
H		-3.431453		0.97635476		-0.65713951		-0.10076338255456084		-0.04134236118632083		0.18571000718795583
H		-1.38509299		2.3608655		-0.46522742		0.19174592887771005		-1.3825773310622904		0.07669631466858624
H		1.0034649		2.59996538		-0.49215552		0.6660328481166062		-1.635302266956189		0.8126452728322004
H		3.31903129		1.49750385		-0.0371363		0.9611574856448125		0.2533638035977108		-0.3806777853881361
H		3.4302365		-0.87374708		0.03787174		0.49913560247402955		-1.157072046858724		0.20437904406880214
H		1.29123009		-2.38901822		0.2143084		0.376351904384979		-0.02233429864777686		0.28738320029334996
18
Lattice="50.0 0.0 0.0 0.0 50.0 0.0 0.0 0.0 50.0" Properties=species:S:1:pos:R:3:forces:R:3 Energy=-10478.404931265057
C		-1.20402358		-1.47037873		-0.08895062		-1.1587821389673836		-2.056594739924991		-0.7215302632761937
C		-2.37093186		-0.79131077		0.19239492		-1.383221649504722		-0.6941604591635234		0.3719087810794481
C		-2.39866677		0.60633205		0.15750534		-1.7768949727800605		0.09612680945011311		0.9930011634563557
C		-1.28556332		1.32518581		-0.13068092		0.6791024337737285		3.5846880230653686		-0.6405748134415035
C		-0.00384572		0.71376694		-0.24058815		-0.5939196790295878		0.6648582139441829		0.8647590648608667
C		1.23843484		1.41364149		-0.10047533		-0.604500385442326		-0.011914954666989908		-0.24393973363554033
C		2.44494361		0.81952972		0.12109105		0.7390915660878571		-1.3687657250440917		-0.6110521732625251
C		2.39284616		-0.5983284		0.20960082		0.6287552467003484		-0.849171649338204		-0.2606219762897123
C		1.22251928		-1.30565716		-0.0406289		1.411772566969684		-1.4793054701106314		1.1617458495363817
C		-0.01984447		-0.70636613		-0.17478127		0.3480517208964974		0.00906164726606057		-0.6031746732504402
H		-1.24109276		-2.61968113		-0.33722312		0.4171959857862111		1.8694432694825869		0.8837500552746792
H		-3.38385261		-1.18853834		0.50565388		1.079638082704369		-0.582443611665563		-0.5786390475314698
H		-3.39081174		1.00715429		0.51495983		0.8674580032303372		0.44571327322233395		-0.7035763530177652
H		-1.37499493		2.48287409		-0.25276292		0.25659825132548003		-1.6747069934075325		0.3802898573490536
H		1.34391385		2.46417512		-0.02106768		-0.8336594642928981		1.8421497757105842		-0.3502624067830559
H		3.39315958		1.41526107		0.05411944		-0.5404980696867663		-0.448995594890239		0.5981462126081016
H		3.24437048		-1.2377159		0.50092122		0.2840322815941437		0.36772590483194956		-0.1667324893545039
H		1.22032147		-2.39996876		0.17414125		0.17978022063508728		0.28629233266064896		-0.3734970029001139
18
Lattice="50.0 0.0 0.0 0.0 50.0 0.0 0.0 0.0 50.0" Properties=species:S:1:pos:R:3:forces:R:3 Energy=-10478.05179832934
C		-1.19385718		-1.40336306		0.0442645		1.0244165469097972		-2.475662591628313		-0.07893728814992455
C		-2.38340642		-0.79709509		-0.13681588		0.439427954529723		1.7330075280351034		0.4004625781799066
C		-2.3426048		0.62482566		-0.14640324		-0.976910017409985		-0.8635651474150267		0.35859787168327295
C		-1.22512308		1.40669709		0.08324675		-2.2372790118399184		-2.9308523853165114		-0.4447814540287743
C		-0.04337968		0.68513801		0.17047314		1.9572052006127645		-0.9827916729124054		0.3988627863951908
C		1.14778884		1.41708194		0.14850994		-0.9251530944946845		1.1007785153283682		-0.22483602606084926
C		2.35511205		0.833669		-0.06535848		0.7252101289088586		-0.5871474962497508		-1.3795480573636756
C		2.38152416		-0.58476205		-0.21589975		-2.134271879012647		1.5699835464020457		2.083817579783195
C		1.3032235		-1.40305407		0.09372844		0.36638327478151944		1.3088733690514838		-1.1508274030175067
C		0.05261242		-0.78192968		0.12811235		-1.5144032388777973		2.475869668273778		0.6700074135891414
H		-1.16265868		-2.47981464		0.03468656		-0.06946411011811936		-1.1167299990531392		0.1730819313589833
H		-3.29170182		-1.3788483		-0.07489791		-0.7094008786088094		-0.12205149934190107		-0.4213692975300949
H		-3.32136062		1.01889229		-0.21661152		-1.41453136061984		1.3371189937317116		-0.16895340823148883
H		-1.45179168		2.42461996		0.22168742		0.5886930377585874		1.97889518081811		0.08805010036811756
H		0.87018431		2.45983735		-0.01934072		1.0060096597032937		0.7703209559414362		0.35767124611802015
H		3.17262386		1.4494498		-0.48842568		0.16906653676886707		-0.19552683886307864		0.5266759221457663
H		3.20755316		-1.00505114		-0.61108313		3.605982516188452		-1.7851354097088794		-1.2114991632105883
H		1.35892817		-2.45581259		-0.08299325		0.09901878624200082		-1.2153846142489066		0.023524822237495642
18
Lattice="50.0 0.0 0.0 0.0 50.0 0.0 0.0 0.0 50.0" Properties=species:S:1:pos:R:3:forces:R:3 Energy=-10478.232433643505
C		-1.27235905		-1.42654585		0.19396874		0.14411475229853213		2.2261468552295236		-0.9668938738208268
C		-2.49921881		-0.78926181		-0.06507237		2.870307071974981		1.0651412262820328		-0.41442906745018876
C		-2.42504322		0.61185605		-0.36301511		-1.813892632488369		0.5432540351234879		0.9921075508551924
C		-1.23792753		1.32655174		-0.14726859		-1.858022326569503		-0.2573763185523302		-0.434628630597638
C		-0.02152864		0.67454787		-0.01493069		2.4491313785099904		2.5551948844627845		0.21146150757343016
C		1.23110168		1.51184116		0.00353432		1.1981297869294134		-0.5442449382667965		-0.017433107609988903
C		2.47536409		0.80062969		0.07879094		-1.4820759879910248		0.7135697166332607		-1.2649076085054238
C		2.42549231		-0.6263679		0.14184535		3.5317407308265367		-0.2581955748511985		0.006611745945009595
C		1.29215164		-1.35926204		0.09726621		-1.1690144094849968		0.39878997275476913		0.9255212764617884
C		0.02314399		-0.72671376		0.07305373		-1.5815288792841837		-1.8721775348089567		0.34704024892821106
H		-1.47309199		-2.43632611		0.41326895		0.904412982626817		-2.080406651537116		0.4204621609265085
H		-3.35342781		-1.44376387		-0.0726538		-1.0553987509092049		0.05245405181586269		-0.04735334317578945
H		-3.41637078		1.15842232		-0.51132767		1.102393682309755		-0.3391141550671159		0.020521053881853227
H		-1.22636732		2.40355836		-0.03569889		-0.23251344282796205		0.6868880939822873		-0.4007105867870772
H		1.32083206		2.70434811		-0.09173792		-0.8135052039824625		-2.5099668665498958		0.11412010900837413
H		3.43972682		1.28255703		-0.23386362		-0.49124663534201946		-0.030451991113540793		0.8428377367965828
H		3.42505796		-1.24551021		0.23034877		-1.528554898994943		1.2737171333993182		-0.2137657816136378
H		1.38888316		-2.39081605		0.32404037		-0.1744771661792943		-1.623221938936377		-0.12056144223844216
18
Lattice="50.0 0.0 0.0 0.0 50.0 0.0 0.0 0.0 50.0" Properties=species:S:1:pos:R:3:forces:R:3 Energy=-10478.044781333117
C		-1.14789326		-1.41167196		0.13277513		-2.5423081042376534		-1.23531565138627		0.10014400381241488
C		-2.39275141		-0.75571163		0.16850061		1.8273894326402818		-0.5286325316217857		0.14132592816390838
C		-2.4635943		0.63615827		0.01377885		-0.5795384708256894		-0.9363550308438169		-0.08301752596078352
C		-1.2579986		1.31155833		-0.03148835		-3.4279023089377856		2.046592685980943		-0.5491375418201562
C		-0.0298435		0.77080663		-0.1924202		2.2899859059368213		-2.179762972197003		0.1724237803817541
C		1.20041287		1.47024584		-0.22764043		1.8113502228769802		0.5262352350706155		1.4389429563241936
C		2.38703238		0.70346961		0.13093606		-0.2841679329948727		5.5996509470145375		0.34910484473536413
C		2.43723254		-0.64042127		0.19842481		-1.5288578777868667		-2.814267925387539		-1.1735511723662395
C		1.25885744		-1.37332197		-0.19767616		2.192226908802652		0.10622260581399826		1.8956617336171209
C		0.01927484		-0.70701675		-0.12044388		1.1462915657333879		0.48311973832707794		-0.8164470601749215
H		-1.23751617		-2.53010318		0.34514745		0.7822739115125729		1.112485416330707		-0.3564036922787593
H		-3.17451137		-1.39549164		0.49358286		-1.6598472514905243		-0.4994178067527259		0.01639864997978966
H		-3.46769674		1.10570203		-0.11354145		0.6017894657323059		0.19785538411676024		0.5015710027734712
H		-1.45616295		2.36177303		0.03259439		0.6318959005862186		1.4532376211969975		-0.21741942199445585
H		1.26270571		2.64599408		-0.19610845		-0.26195900133533595		-2.100452411295793		-0.19262925706638445
H		3.24566038		1.35493199		0.55511864		-0.8347915724196796		-0.9748409993054616		-0.944958558955558
H		3.3573361		-1.11273978		0.54621076		0.20227948125918663		-0.45935719189490065		-0.15713600121695645
H		1.34243725		-2.47886413		-0.16987182		-0.36611037789612566		0.20300283541159567		-0.1248726679538025
18
Lattice="50.0 0.0 0.0 0.0 50.0 0.0 0.0 0.0 50.0" Properties=species:S:1:pos:R:3:forces:R:3 Energy=-10478.480449819692
C		-1.19955795		-1.44808379		-0.0113718		1.1326592170248715		-3.196753350536792		-1.265988551680073
C		-2.37334042		-0.83370346		0.12621789		-2.1055675181133506		4.6300928961384535		0.07951794607904966
C		-2.45080232		0.68676416		0.15228172		0.8396932776780919		-1.545033407437709		-0.054154990797407175
C		-1.30001364		1.42097103		-0.07108696		0.9236328012185082		-2.0766351517891746		0.378342709532524
C		0.00881997		0.6931982		-0.22674784		-2.456226646108167		2.082619857104734		0.42659244210084885
C		1.21600647		1.42918553		-0.18430451		-1.3201689963983902		0.22793153137589298		-0.44735178582007057
C		2.36133697		0.74546947		0.07606084		3.303541958992119		2.755363644324806		0.08616630453251986
C		2.45004266		-0.64408471		0.18605534		-1.4482502467825522		0.803810088329146		-0.13948974915813442
C		1.28533621		-1.36951587		0.01544864		-0.27095323427753154		-0.22411678567343582		0.05842651868056027
C		0.00478244		-0.71539933		-0.15940079		1.7960240314315363		-0.7134849216522893		0.5452724539185657
H		-1.11647171		-2.60520493		-0.18151506		-0.24962418552848537		1.7636914840723321		0.6625475121461696
H		-3.37214596		-1.21418432		0.19056051		-0.6658943685024428		-1.3055440476185043		0.14050636333266536
H		-3.38151856		1.25180981		0.41235204		0.2648621881368366		-0.6754945590284863		-0.2027565751545482
H		-1.34630195		2.47774142		0.17418872		0.34996883822855934		0.6978559571031714		-0.43996510939401995
H		1.15720351		2.52483777		-0.33930405		0.22143507369488433		-0.2399749897769321		0.26560431134203794
H		3.29470437		1.46581022		0.20560201		-1.2940790874199677		-1.700108103859509		-0.17165599756739286
H		3.37252223		-1.02522761		0.5325992		1.3512987302949517		-1.1024031439692448		0.19870240832934868
H		1.36100252		-2.45615082		0.16015947		-0.37235188499153377		-0.1818170485285203		-0.120316261844706
18
Lattice="50.0 0.0 0.0 0.0 50.0 0.0 0.0 0.0 50.0" Properties=species:S:1:pos:R:3:forces:R:3 Energy=-10478.339730546439
C		-1.09457795		-1.49225522		0.09441269		1.3367735917382708		-0.10432801134528714		-0.08269068733188523
C		-2.32383287		-0.91834791		-0.14122881		-0.6277871235307029		-3.954083345154584		-0.43700900929026376
C		-2.49667216		0.45865908		-0.18597429		1.1931823160354253		1.0655597504482697		-0.6041630052906265
C		-1.33940254		1.30698634		-0.13779598		-1.3771452072297614		0.7126932790009539		0.12171550758588764
C		-0.03463934		0.75068443		0.04326316		-1.6460514834675581		2.054662093130071		-0.5576486130636218
C		1.13243532		1.55566351		-0.1044576		2.12182208347417		-0.39249030730673623		-0.7869221574251957
C		2.34787833		0.8543201		-0.22171959		-0.3993093355854603		-0.9186802909624004		1.2798050427942043
C		2.42307926		-0.57795919		0.13784191		2.193176314341568		3.150942977766717		-1.3885791085025818
C		1.31281193		-1.25997332		0.4240947		-1.390194121217781		-1.4027179131041156		-0.3442965219423512
C		0.02226449		-0.62629129		0.18673553		1.793701142604724		-3.0145415348348843		1.3662021295429758
H		-0.81869092		-2.59961052		0.05783059		-0.8442331773051437		1.0970895479906508		0.1951807169607636
H		-3.04216416		-1.80575403		-0.4088795		0.04244274190057413		2.199511975233312		0.5030696473613584
H		-3.5127958		0.71237741		-0.4679866		-0.3885392931388007		1.10280500738725		0.08015532254305124
H		-1.37729312		2.45159557		-0.25198546		-0.3354665824896663		-1.4397975395799614		0.07649319752192983
H		1.1236952		2.6594174		-0.31176353		-0.3488628010874371		-0.6958388238596548		0.2529740757864428
H		3.35965141		1.25634512		-0.40512999		-0.4143676180855673		0.6768712819063171		-0.1856896440512277
H		3.46808522		-0.9370552		0.00746133		-0.5136129699346993		-0.5642727517256806		0.5541811205488534
H		1.40322794		-2.35083384		0.64697876		-0.395528579866279		0.42661475927594983		-0.04277806516977576
18
Lattice="50.0 0.0 0.0 0.0 50.0 0.0 0.0 0.0 50.0" Properties=species:S:1:pos:R:3:forces:R:3 Energy=-10478.376360635175
C		-1.08394739		-1.47774847		-0.1127265		-0.7570104579217608		0.3648269346395694		-0.21843660181167368
C		-2.35652625		-0.98862721		-0.08731388		-0.3612638999327788		2.372433983978093		1.5169323301750135
C		-2.44682382		0.44541881		0.02972209		0.25664437691549286		-0.5381411908766777		-0.22588025388291305
C		-1.3506816		1.28362374		0.11235808		-0.13882738157178476		-1.6492771380226496		-0.23871391511753925
C		-0.04012779		0.72651073		0.09327384		-0.4614785062369302		3.2797293274711206		-0.8383475108818528
C		1.14697736		1.56049113		0.05654891		-0.9486436182165296		-0.7666332227332175		0.619698124575783
C		2.33266766		0.93444446		0.00556651		0.16623863186678545		-3.6583157261575696		-0.5711058696495144
C		2.43324967		-0.53642632		-0.080992		-0.684631282505716		2.617115583708522		0.7624496779989072
C		1.31976734		-1.30433316		-0.006831		-0.6924904248415082		2.7336504727692974		-0.7604561474820527
C		0.04514697		-0.6446272		-0.06820141		1.1526589026155982		-2.3711689498198916		0.45584552782849236
H		-1.01788026		-2.52879443		-0.19885574		0.7276640411507801		-1.7389365946790976		0.10629999601797746
H		-3.19977045		-1.55874393		0.31183581		-0.4382311060263235		-0.5363930978638715		-0.8844852879235128
H		-3.37833333		0.97153719		0.02391559		-1.336139197753891		0.13599901387114108		0.1520451656128726
H		-1.60068265		2.3150873		0.1771054		0.324873380515754		1.4944729216493085		0.10757022380448548
H		1.25575624		2.63079074		0.17437586		-0.9830212209991583		0.7498734870309414		0.07261396855316707
H		3.22505068		1.4642007		0.11050944		1.9877274342636049		1.2140844073999937		-0.0660100901837115
H		3.3924158		-0.94927838		-0.01719941		1.9773757102949325		-0.9306784465264258		0.013802144358708959
H		1.32709317		-2.32962406		0.11714026		0.20855472122755836		-2.772641765838586		-0.0038214305705749664
18
Lattice="50.0 0.0 0.0 0.0 50.0 0.0 0.0 0.0 50.0" Properties=species:S:1:pos:R:3:forces:R:3 Energy=-10478.521466076681
C		-1.08841888		-1.45115991		0.18634162		0.8996773192080386		-1.0940907161530031		0.5637669643194748
C		-2.33087494		-0.93655877		0.0071587		-1.3032067606142073		-1.2179918670810386		-0.9998029139220983
C		-2.48655803		0.38946607		-0.33389195		1.8766740342153052		0.6884220141050116		1.4966735802336901
C		-1.39782964		1.24516132		-0.15330224		-1.1739007395467382		-0.10351816528384618		-0.6205284880401395
C		-0.10991406		0.79369863		0.00408271		3.086510156504371		-3.123092737324627		0.4914139627332144
C		1.14530587		1.49676028		-0.09681066		-1.5870026035652303		0.38557193160336917		0.8286722441446402
C		2.37588281		0.88727567		0.04033192		-1.0886732476082706		1.614620724817446		0.0397313079699296