18
Lattice="50.0 0.0 0.0 0.0 50.0 0.0 0.0 0.0 50.0" Properties=species:S:1:pos:R:3:forces:R:3 Energy=-10478.613288135977
C		-1.19446568		-1.45976007		0.16581789		-0.8881175367263539		0.2081217474617743		-0.28573574025674797
C		-2.43987867		-0.83267062		-0.08295537		2.1640028299665888		0.19937542028262442		0.1872392479029976
C		-2.49456749		0.58064114		-0.32398795		0.06330837502286903		-0.12660733980831065		1.3426873346076567
C		-1.34410051		1.36045264		-0.15761503		-0.15401123674838174		0.8343302650974886		-0.3993156604991409
C		-0.0563018		0.78892624		-0.01695421		2.50611345145648		-0.9034913964236839		-0.31133276876663857
C		1.29722602		1.4214509		-0.11027045		-1.4985625696975948		-0.7917553170743692		1.3535917943255464
C		2.51499574		0.75999977		0.15520416		-0.9302563228158177		0.7393889912970372		-1.0940744667812705
C		2.45976072		-0.66168266		0.12590842		-0.36828023466510307		2.054925065557413		0.7783331303350638
C		1.230955		-1.29479461		0.10016191		2.7955246350485226		-0.6907868119127165		0.14644185773446522
C		0.00539798		-0.64693344		0.13448238		-1.6777405865593924		-1.0361475134373601		-0.5500967175509364
H		-1.16873219		-2.60154084		0.33486744		0.2026661751687705		1.587303936851156		-0.1734156605442492
H		-3.30061159		-1.46040574		0.00173588		-1.2105108311704018		-0.39023627262153693		-0.2212995251382802
H		-3.4763937		1.09439308		-0.36082852		0.1964219941261153		-0.17643408418768833		-0.2565045603277058
H		-1.42409502		2.46850274		-0.1256487		-0.05550811094857598		-0.2575788186342373		-0.2890708209607213
H		1.27690415		2.48104876		-0.23750222		0.13767336764640167		1.3492094518978253		-0.14250261921882956
H		3.47544743		1.36030825		0.21146758		-0.8283053477290975		-0.6466325895077968		-0.09943041985187034
H		3.38372168		-1.18112075		0.26555679		0.862676471331858		-0.9236516731154256		-0.14329508462316423
H		1.48384312		-2.3474254		0.03259401		-1.317094471284824		-1.0293331645663184		0.15778073103588758
18
Lattice="50.0 0.0 0.0 0.0 50.0 0.0 0.0 0.0 50.0" Properties=species:S:1:pos:R:3:forces:R:3 Energy=-10478.363252745796
C		-1.16856404		-1.49027641		0.08037879		-0.5117030002693173		0.30131323132135884		-1.190606893459947
C		-2.39461313		-0.84666439		0.23942118		1.3896367060608807		2.318194146777652		-0.4955045878006872
C		-2.39242703		0.62758061		0.05459609		0.16994246018054945		-0.8805386446308852		0.8612196843028007
C		-1.25341183		1.42242978		-0.21927669		-0.8360792837074188		-1.3192632996125524		0.01856696408689367
C		-0.01129534		0.7480176		-0.18263221		0.797793964133433		0.705462462846173		-0.27743436818393175
C		1.23017913		1.49856779		-0.07937666		-0.7199407044819044		-0.47411984895801335		-0.48741363480739447
C		2.38487018		0.78844973		0.07320039		0.5903897087089491		-0.9863348587030922		1.0395392098320848
C		2.32745781		-0.63967221		0.11272815		4.543441938667392		-0.15964766043500347		-0.6798734047559614
C		1.25664272		-1.40677576		-0.03796704		-3.609445483561725		-0.8645319336110486		0.5786724204499964
C		0.01441782		-0.67741757		-0.11849312		-0.4272529584929505		-1.9926820528242728		0.6559465134122109
H		-1.109807		-2.6099787		-0.10067842		0.10900721333950152		0.9370631126436799		0.6658841869340786
H		-3.32610848		-1.35412584		0.49609087		-0.242939728787179		-0.13473500815418887		-0.04784843479300665
H		-3.30998724		1.0937815		0.40236499		-0.6756538131558772		0.5319882839948618		-0.5205733060410213
H		-1.20232826		2.49981477		-0.48965437		-0.6096781757540037		-0.24778918923014767		0.537886240291077
H		1.26299673		2.59348019		-0.11771147		-0.3210649083049151		0.1791185215355494		0.13132366853161007
H		3.34328473		1.19048868		0.45407621		-0.11609214510312689		0.4399070024634575		-0.6896127948050425
H		3.31494452		-1.18680925		0.07221295		-0.40026352337618337		0.5219375333576782		0.6308773837953772
H		1.10746373		-2.51548752		0.2064562		0.8699016824818323		1.1246582012187945		-0.7310488469891375
18
Lattice="50.0 0.0 0.0 0.0 50.0 0.0 0.0 0.0 50.0" Properties=species:S:1:pos:R:3:forces:R:3 Energy=-10478.36275582955
C		-1.20404753		-1.48694205		0.11196135		2.283038322501986		-2.386098420053575		0.9012301112276799
C		-2.29712625		-0.78993333		-0.2282124		-3.9079247935996966		-0.2029545500949601		-0.29114333576549095
C		-2.43089176		0.61756647		-0.20204321		1.3839755483622231		0.16993983765536477		0.428367017475814
C		-1.3300273		1.36789459		0.16509805		1.3069063208967884		-0.5361109964293		-0.6433928453075959
C		-0.02743059		0.70483238		0.21780721		0.002440542505686046		0.2689990930605095		-0.2038360270893865
C		1.19802916		1.50199538		0.12858157		-0.618115764870236		0.46970089402183157		-0.10333350865760745
C		2.43758167		0.8570169		-0.12800697		-4.524131977200236		-2.43497750724416		0.6117728020456247
C		2.36918249		-0.61589985		-0.24148748		0.4193047531450042		2.7589879741300294		0.6899385535706295
C		1.2780728		-1.38812955		0.07969873		0.47027013625309394		-0.32152220470623544		-0.9482761047362377
C		0.01111068		-0.78036575		0.18882695		0.4420951140646027		2.306036685664173		0.5719537680371645
H		-1.07658367		-2.6248143		0.33517516		-0.821769243637944		1.5977878155203111		-0.7988670911545906
H		-3.24557039		-1.33404862		-0.4329384		0.24635183974069447		-0.054215565986966995		0.033691015404867526
H		-3.32002142		1.16775667		-0.46434291		-0.9435513427946973		-0.08111043593089837		-0.12633557420829064
H		-1.41498353		2.46817669		0.17907107		0.25446233311771616		-0.04132744878821188		0.15474698361783995
H		0.96586372		2.66049931		0.14653953		0.9970864920513965		-1.9465512177610427		0.08056618482198408
H		3.36803386		1.30990888		-0.16971443		2.1624142996135487		1.3912248250374217		-0.4408788794436616
H		3.26502437		-1.02493963		-0.64584357		1.2012995971246898		-1.0174019091055335		-0.07383997336597267
H		1.40527038		-2.47996515		-0.04629336		-0.3541521258525574		0.05959307958917984		0.15763705779341722
18
Lattice="50.0 0.0 0.0 0.0 50.0 0.0 0.0 0.0 50.0" Properties=species:S:1:pos:R:3:forces:R:3 Energy=-10478.118759310892
C		-1.1431801		-1.44101977		0.21682003		2.0993027168236553		-2.529119270817722		0.04095623291942387
C		-2.36112071		-0.89244978		0.01201463		-1.2974237840496183		0.0898459644769349		-0.8155144696504251
C		-2.46687977		0.47347675		-0.21320432		-1.775568180724863		1.7522315632359147		-0.1498013639180998
C		-1.38637743		1.28453122		-0.19447904		3.5852211670087946		-0.24842389174690213		-0.8023157117724418
C		-0.02530192		0.72793423		-0.19683035		-0.4043045261533971		-0.3053411728947116		2.5791612165284303
C		1.18932908		1.52699348		-0.15723447		-0.5347025461389407		-2.327823442191039		-0.9388263237428448
C		2.42842644		0.8654906		-0.08669002		-3.0488861760754853		0.1954929003018652		-0.004122506746188456
C		2.35875458		-0.53562562		0.24156689		6.526571777749883		3.0156574450119957		-1.2180960481795513
C		1.33657012		-1.32990593		0.27190439		-4.554565250683047		-0.8863591593010588		1.205819544991513
C		0.08510079		-0.68692019		0.15183424		-2.1274851952112006		0.6914038766620525		-1.244471812403104
H		-0.99351271		-2.58422485		0.28812416		-0.41762875386374526		1.3820145165888338		0.1314177709058838
H		-3.30598113		-1.38859785		-0.20042546		-0.1241029825231308		-1.0158462374503954		0.4648782244733966
H		-3.45255824		0.96107428		-0.4387006		0.3685441841116314		-0.48941184473193156		0.34414107304758107
H		-1.36259601		2.34667692		-0.33507143		-0.6644400497323828		1.1369475085003813		-0.1717280912989403
H		1.0327181		2.54489483		-0.41469911		0.27978728749521203		1.634759558509148		-0.21389603369781016
H		3.30570452		1.4153193		-0.4184665		0.7386951534084713		-0.10501783831298228		0.5008690916211016
H		3.38551439		-0.89124264		0.28545482		0.4936315391761405		-0.8789003891434608		0.3996093833198249
H		1.20824389		-2.31458882		0.6897954		0.8573535679599614		-1.112110035274861		-0.10808017639774917
18
Lattice="50.0 0.0 0.0 0.0 50.0 0.0 0.0 0.0 50.0" Properties=species:S:1:pos:R:3:forces:R:3 Energy=-10478.23991394956
C		-1.26603926		-1.39561262		0.0253474		1.747900282916201		-1.3095158362996675		0.9742188951940061
C		-2.43440914		-0.78150206		-0.19360518		-0.4865799289089792		2.4519136720426835		-0.6501479045406388
C		-2.45777812		0.63390036		-0.22803323		4.676811485375426		-0.7634386271038429		0.09261277996883233
C		-1.19906896		1.32833008		-0.19387009		-2.470121812977838		-0.24580784574209238		0.7139286940511869
C		0.05359062		0.70403457		-0.06857728		-3.049172648385365		-1.7477082729350328		0.90010581925439
C		1.20903794		1.46215368		-0.04292125		0.9466894769995078		-0.36791714348218124		0.619484414484263
C		2.38749713		0.79866927		0.09684085		2.0121935373541495		-0.6137152704544717		-1.224428315215174
C		2.44315013		-0.62621754		0.13712232		-0.8857270793094891		-0.1655321441508582		0.20613670158522304
C		1.29749677		-1.38306135		0.29189073		-2.27518941315662		1.5133334542906987		-0.12352412436619126
C		-0.05329027		-0.73455745		0.21038789		4.213517111847388		0.9535758681800343		-1.20265842512479
H		-1.16595633		-2.44675332		0.15674947		-0.29954909462506984		-1.5655538956768753		-0.06918231721592263
H		-3.33660339		-1.24990371		-0.46944938		-1.478144668473006		-1.2883156512391079		0.010717643365028425
H		-3.39242972		1.04837805		-0.2478667		-2.6920636510981146		1.9786965888129484		-0.19771947560571898
H		-1.13243594		2.37996542		0.04392572		-0.5171898885983499		1.0880955207367047		-0.5651600908352256
H		1.23233048		2.53674081		-0.07966211		-0.3717096748536623		0.8888704071426062		-0.29256988662183075
H		3.31453269		1.35463429		-0.13478862		0.10384407831562044		-0.04731606218051708		0.5250274850899779
H		3.31169373		-1.24757529		-0.05475069		0.9866191712863487		0.2893555963425399		0.27651221633811157
H		1.40506371		-2.44861452		0.37435821		-0.16212728370814747		-1.049020358283569		0.006645838772410405
18
Lattice="50.0 0.0 0.0 0.0 50.0 0.0 0.0 0.0 50.0" Properties=species:S:1:pos:R:3:forces:R:3 Energy=-10478.102238343681
C		-1.25533014		-1.49614761		0.0951391		-1.2119545055735355		0.5177652500550433		-0.44688975858900526
C		-2.40727959		-0.72175055		-0.20020685		-0.7863273070068356		-3.130511346851455		0.19111215195807962
C		-2.38237918		0.62957354		-0.31059033		0.03142258254218376		3.8648439039041835		0.20514615839635159
C		-1.25077331		1.41494624		-0.04311569		0.116150560566064		-3.9826981802431645		-1.1284289810578614
C		-0.00123898		0.67053715		-0.02255653		-1.4929627070973717		1.84635424922431		0.4356717785563904
C		1.20385646		1.41600597		0.00998128		1.3672168411011962		-0.26948636852423513		0.21702748303450267
C		2.45266005		0.77383128		0.07778328		-0.42138266726633045		2.2126292291423213		-1.0942115065776854
C		2.40278897		-0.63430613		0.1810865		0.8652024773053271		4.073001903919982		-0.510364278295633
C		1.28204264		-1.32570417		0.17177594		-1.967332467278866		-2.9195625172405983		0.7593682623289734
C		-0.02830755		-0.76960594		0.02385337		0.826307703447247		-0.46402317841906665		0.7881654400509824
H		-1.40628324		-2.59030528		0.36207974		0.6598437401028294		1.0036784919244275		-0.49340409939394775
H		-3.42834592		-1.16436179		-0.33675466		0.6827137023750922		-0.28809997242176616		0.23310762475951008
H		-3.2554197		1.28659154		-0.5522589		-0.14324283980772043		-0.9554094760826859		0.1609007646747174
H		-1.49136063		2.43561709		-0.09121325		0.749013864413054		2.152006782707124		0.11395031335818187
H		1.11672045		2.50968935		0.04452929		0.06260641244843695		0.1267944646935468		-0.21691635995755976
H		3.41664791		1.4117714		-0.09146373		-1.360744191835099		-1.242680370591657		0.6807239770908585
H		3.31656781		-1.02344535		0.38780178		3.1671491035447144		-2.1652776343166544		0.5271657172905517
H		1.5404471		-2.35769052		0.47866495		-1.1436802505583232		-0.37932517945759175		-0.4221246362053445
18
Lattice="50.0 0.0 0.0 0.0 50.0 0.0 0.0 0.0 50.0" Properties=species:S:1:pos:R:3:forces:R:3 Energy=-10478.69830533582
C		-1.1960544		-1.48106749		0.22089728		-0.4691063007137839		-0.5573181234682899		-1.4321640886762388
C		-2.35475076		-0.78512818		-0.12603217		-0.8488486159419266		0.6156195836929848		0.34692038410065246
C		-2.4554155		0.65989108		-0.16863674		0.8818272300936858		-0.24679962306046255		0.748907472165856
C		-1.28957454		1.40217357		0.02339263		-0.29129060855233246		0.6643133971925816		-0.2597155081729378
C		-0.00565316		0.72544088		0.13868883		-0.1231404129362292		0.9889822207439307		-0.6900278736930958
C		1.21105565		1.47027387		-0.04298105		-0.462473934521734		-1.9047882755259866		0.19269677423437429
C		2.39936858		0.74970652		-0.19584246		0.3666665075014647		0.9964551833907636		0.16625297862220748
C		2.41705799		-0.63244422		-0.13442622		-0.4081248768606607		-2.51164908790071		0.8072745469422302
C		1.23621656		-1.37850918		0.12215679		3.1288084538315384		-1.058455329722978		0.27955892211589534
C		0.06520192		-0.71823779		0.22300689		-4.0869829456339355		0.6068592697128499		0.11973776364220357
H		-1.24476531		-2.66022621		0.12304257		0.45804459232893824		2.1457711377268343		0.46855932423556007
H		-3.33845543		-1.22953516		-0.37958906		0.415423518715806		-0.678499510091565		0.29825793805914685
H		-3.46556086		1.13802908		-0.23383272		0.6242675404666781		-0.2146512695289349		-0.2525246983827389
H		-1.3528623		2.55120591		-0.04152708		0.3300279280552068		-1.4255647354482788		0.19927864396110356
H		1.11657754		2.53329567		-0.10513761		0.23012103137272422		1.1615583132746459		-0.048105030884605514
H		3.40558374		1.18586921		-0.28268857		-0.19575366158052201		0.6008416028552636		-0.2021131308871781
H		3.37763923		-1.18619721		-0.15101902		-0.14001836796006553		0.23749886320403432		-0.1997791348948774
H		1.17481897		-2.47661477		0.35371976		0.5905530251792733		0.5798264343753795		-0.5430153853316823
18
Lattice="50.0 0.0 0.0 0.0 50.0 0.0 0.0 0.0 50.0" Properties=species:S:1:pos:R:3:forces:R:3 Energy=-10478.208464562616
C		-1.18597373		-1.43387597		0.16660088		-2.985511003793501		-2.208074108584785		-0.7032270429475785
C		-2.43077788		-0.79077621		-0.01738512		2.9213862521072613		1.8590977161614077		-0.6210519132137636
C		-2.40131602		0.59620418		-0.34656016		-0.3823273537292983		1.377805723621863		0.5262379604399252
C		-1.19221637		1.33955594		-0.31150144		-3.041236424377969		-1.2029121930029545		-0.7556603202502138
C		-0.02474101		0.66232513		-0.05401881		1.426905308616211		0.9579032404230022		1.5342396079982004
C		1.12316833		1.50788273		0.06181806		3.3731820868299867		-3.5192038777363415		-0.7090001464761783
C		2.40949468		0.8257226		0.0832384		-2.924196364975736		-0.08563783999677609		-0.8803527024530854
C		2.40294549		-0.60629465		0.06798134		2.517123634934756		1.3617073784867504		0.9576919985904796
C		1.27478052		-1.31665429		0.30220694		0.5236707139723755		-4.753790981341895		-1.4576936000181395
C		0.01721596		-0.77832606		0.18296547		-0.24186089391709		3.1553771022113204		-0.06652569920384412
H		-1.25976011		-2.55234108		0.04863487		0.4805363967539831		0.5565097172245974		0.7050982403778773
H		-3.31737669		-1.3374903		-0.11102759		-1.7743683497418419		-1.1415390358781277		-0.004898259980228609
H		-3.33936122		1.19354229		-0.54345024		0.49728008877277646		-0.7280990717990621		0.03812596260246974
H		-1.16131303		2.38637301		-0.6150755		-0.12371711136654605		0.37300216839320893		0.1615528992706406
H		1.12012085		2.53353045		-0.2265357		-0.35977893361350194		1.3471067523424007		0.03050927529110414
H		3.32511436		1.26053739		-0.28454037		0.7120393446328451		0.9279704578739651		0.3860379697553051
H		3.42749373		-1.0667288		-0.00700554		-0.8446456336680123		-0.08736839808628868		-0.030400980427595686
H		1.29359996		-2.48610003		0.12681081		0.22551834540742752		1.810145198265652		0.8893167506446259
18
Lattice="50.0 0.0 0.0 0.0 50.0 0.0 0.0 0.0 50.0" Properties=species:S:1:pos:R:3:forces:R:3 Energy=-10478.70340576357
C		-1.12282312		-1.59461174		0.05445608		1.259767150611081		0.35413829331775976		0.980400341320479
C		-2.30139674		-0.90601442		0.08692999		-1.2486074831972782		-0.8054914355048992		-1.147634144361756
C		-2.4439604		0.4818497		-0.12521377		-2.1412562292221304		0.9594636429078854		-0.7074548106555913
C		-1.35795079		1.29808226		-0.25642957		0.7642699161653234		0.215092110870273		0.14900961842263938
C		-0.05262262		0.71568416		-0.0826548		-2.3116372167512083		-1.5273124905442177		-0.26735744371696374
C		1.07197725		1.48911378		-0.23909879		1.9051861280231213		-0.37834774889464357		0.6167824936351708
C		2.34375412		0.92195603		-0.00801672		0.0964050028079387		1.8563247300220174		-1.1267406404816158
C		2.49640279		-0.39968504		0.339725		-1.999754848981161		-2.139377061372153		-0.9202100458980668
C		1.34379475		-1.23447169		0.23486838		1.0940903561985658		-1.2546467473210912		0.7881315014897691
C		0.02624016		-0.75535193		0.07432955		1.5528226671906389		1.3224510046855595		0.030926873860217228
H		-0.96109233		-2.69843751		0.19945544		-0.4765833257035498		0.7197586189587878		-0.29862185199506774
H		-3.20455037		-1.47047911		-0.06903191		-0.9554945281739693		-0.6013252787746179		0.45741770596567544
H		-3.50944266		0.89693573		-0.36081213		1.5974525950952345		-0.6373293613923712		0.6231574924046851
H		-1.44774196		2.37293558		-0.51891563		-0.0016081735808943214		-0.2567988487910767		0.16162710130674826
H		0.87312149		2.51379053		-0.50919499		0.4119959811435571		0.8632498787501784		-0.235168723866417
H		3.270373		1.41346292		-0.35332164		-0.11643924402462834		0.5899989010343697		0.5202685788989743
H		3.47469603		-0.8647638		0.37062819		0.5399757757985159		-0.17365503024492904		0.2912941052525787
H		1.46403869		-2.36066852		0.30166878		0.029415373756718866		0.8938067708711064		0.08417200268472859
18
Lattice="50.0 0.0 0.0 0.0 50.0 0.0 0.0 0.0 50.0" Properties=species:S:1:pos:R:3:forces:R:3 Energy=-10478.523268959581
C		-1.1789061		-1.46470151		0.00332113		0.7986003649166902		0.22195119693564141		-0.7667743248725655
C		-2.39381379		-0.84975993		-0.13055737		-0.06076725096304121		0.21282439791646346		-0.04811279561603465
C		-2.46698		0.57949661		0.03548612		-4.704033502480631		-3.102327377224099		-1.7572054136479374
C		-1.36643682		1.2584827		0.18889626		3.2909974440146192		5.757857452727467		0.7074494627610971
C		-0.03628973		0.73423431		0.06096909		0.21266941182025523		-0.8961023031606984		1.522474960019736
C		1.19828695		1.44825091		0.23939237		-0.9131909343743705		1.4687376706355668		0.9877164152547929
C		2.44643695		0.86367647		0.07864806		-1.1609794036956438		-1.9836623145391046		-1.0830308589624054
C		2.48026225		-0.54537313		-0.22685402		-1.1879866308460167		0.2410558815295189		0.17755354248710856
C		1.29026946		-1.29604329		-0.19103294		1.4406341251138735		-1.5602945499741603		0.032619431045583236
C		0.04009676		-0.7169656		-0.00679853		-0.86066057221784		1.3203012025209355		-0.028988879170802857
H		-1.08747734		-2.53117946		-0.14386078		-0.015408723855667498		-0.8197963847901921		-0.005726309451774981
H		-3.19489968		-1.49594418		-0.51203366		-0.5940314705933424		0.2586527169863316		0.4554339970627478
H		-3.45824119		1.07340173		-0.21348697		0.8302790807519107		-0.28571969657326524		0.7541349876119179
H		-1.55165893		2.42323087		0.34266386		0.8700116228513389		-1.9354229178053313		-0.3398237795288522
H		1.11343556		2.48061227		0.7229772		0.13694692817024595		-0.7188926200051572		-1.0844472796724436
H		3.34693171		1.42779672		-0.03491735		0.9681074859165832		0.7441499543705384		0.4680002121505992
H		3.3889884		-1.08007174		-0.48679345		0.6199073609478704		-0.009667142051346451		0.03660453804091956
H		1.28899513		-2.43246877		-0.28727178		0.3289046645231655		1.0863547296567657		-0.027877854089623514
18
Lattice="50.0 0.0 0.0 0.0 50.0 0.0 0.0 0.0 50.0" Properties=species:S:1:pos:R:3:forces:R:3 Energy=-10478.392507544964
C		-1.13351723		-1.451207		0.2275752		-0.1532000022912548		1.2165318404620473		-0.9752098497593773
C		-2.31019478		-0.80157349		-0.05688929		-1.348134525104482		1.695930832616817		0.0009380926851779469
C		-2.47695689		0.65113126		-0.13268161		-0.8115314709596491		-0.6183439759833653		0.009184854527677977
C		-1.35663041		1.43715163		-0.07976596		1.082678103614035		-0.043902768519565386		1.2039218651990553
C		-0.0979588		0.74882563		0.14494691		2.3546886930270023		0.7740844338476363		-1.435964744733586
C		1.17539005		1.4428223		-0.00579779		-2.3504285294196494		1.3738111035449745		0.16678802518194416
C		2.32756331		0.740656		-0.13761283		3.1332069942089293		0.01794701970206084		0.792113317473109
C		2.49664801		-0.65787638		-0.12705761		-3.871835350358285		-0.884431860400633		0.5174290011887176
C		1.30959639		-1.4247439		0.06299254		0.1123863113289275		0.46501726973024693		-1.1565129347737633
C		0.09281226		-0.68735296		0.18189401		-2.076283939102677		-0.7313029233996766		0.6324606690980483
H		-1.17013097		-2.52914396		0.27283205		0.34124359409501176		-0.8023185914079387		0.0463864541356425
H		-3.24036242		-1.30355277		-0.31879322		-0.28093590210403846		-0.7875677099971259		0.4020242147942885
H		-3.51941592		1.11640676		-0.18383172		1.0893860602378784		-0.6631098123990019		-0.24620394988910368
H		-1.35780961		2.5643186		-0.08515426		-0.04994383241556414		-0.8359072254864789		-0.09802952860469044
H		1.16217517		2.58042009		-0.07610186		0.14552824195101097		-1.1070385857883185		0.14754532377246524
H		3.3177139		1.24417434		-0.06603331		-0.4157095282271233		0.4394723831916752		-0.5239734870760496
H		3.4249548		-1.12244933		-0.26388186		1.9009026702214809		-0.7337744734090168		-0.30638421800933907
H		1.06419719		-2.52435261		-0.2031666		1.1979823598763846		1.2249030436956634		0.8234868947897829
18
Lattice="50.0 0.0 0.0 0.0 50.0 0.0 0.0 0.0 50.0" Properties=species:S:1:pos:R:3:forces:R:3 Energy=-10478.401009565081
C		-1.12763597		-1.56715029		0.10033542		0.35177848345011176		1.8320231775312952		-0.9963830382371537
C		-2.3041829		-0.81614254		0.23545945		-1.0716947110302926		-2.6686770513644706		-0.8937631649621532
C		-2.46559325		0.57318338		-0.00136464		-0.4354084975966736		-0.6110616863440774		0.42010657736470375
C		-1.3433259		1.35998991		-0.18630762		-1.0927458235318253		0.9012235806257497		0.3466991149659531
C		-0.08922104		0.74953884		-0.09028398		1.7098696053954412		-0.08502226648725106		-0.8097331900138968
C		1.11935028		1.54419194		-0.14718568		1.9624138955839716		-2.228095391441739		-0.03024655997407437
C		2.38636726		0.8352453		-0.15920217		-2.5024130169988372		-0.5205220896668264		0.8121882335411921
C		2.50742006		-0.59260579		0.10446348		-1.5923527606302228		0.0057936723535774864		0.5273953682214295
C		1.28832502		-1.34748734		0.22295817		1.273385769628925		1.63196518079178		-2.048096524197137
C		0.02263194		-0.72071485		-0.09143063		1.0096189742662844		-0.49334121021157784		2.224206289436987
H		-0.96225012		-2.68796807		-0.04047695		-0.6890187671396817		1.1759748484354438		0.6506886589493068
H		-3.21244816		-1.46150985		0.29355398		-0.041656344299607934		0.5516313575825348		0.25773354762013323
H		-3.53054093		0.88987917		0.00129414		0.5120803867855986		0.4564127645993194		-0.07674999930177846
H		-1.40129938		2.46848608		-0.31690618		-0.04485176268198159		-0.5377138221157001		-0.0014865089811502542
H		1.20951835		2.66272258		-0.13814021		-0.6310719134576053		-0.6939371331463262		-0.2237519975624534
H		3.21326705		1.48666169		-0.29851512		1.548010179210568		0.4948590866508194		0.010341131023808618
H		3.46239746		-1.12253574		0.38426094		-0.44527623711361675		0.6840901167205484		-0.5783496955860938
H		1.29133752		-2.45080398		0.265174		0.17933254015944408		0.10439676264277566		0.40920180911443926
18
Lattice="50.0 0.0 0.0 0.0 50.0 0.0 0.0 0.0 50.0" Properties=species:S:1:pos:R:3:forces:R:3 Energy=-10478.18424574044
C		-1.18789773		-1.5031643		0.24081786		1.3628034911698208		2.7717983925924314		-0.12111237821547421
C		-2.37182182		-0.88503028		-0.08878132		-2.319820935145151		-0.690989929059373		0.45923146495222344
C		-2.43594961		0.54224102		-0.14411468		2.949532529362845		-0.663919555616318		0.5937816622139862
C		-1.28345895		1.3290175		0.00393732		-0.6916711171205774		-1.1188115127188363		-1.0631290295565106
C		-0.02076752		0.72620653		0.02146213		0.14149891198197223		2.0993813925791955		1.5329106047943177
C		1.19930507		1.50981398		-0.07466394		-2.8526929072831244		-0.44833811239982163		-0.23387957276092936
C		2.32028226		0.82442339		-0.25192186		4.0795977090256335		0.04117590797018747		-0.41304427130855403
C		2.46261051		-0.58285706		-0.05580121		-1.323732751014055		-0.10538889991558295		-0.8735837078411198
C		1.29332784		-1.33808393		0.14178762		0.597567457295287		0.1124362421515613		1.276817266699982
C		-0.01984263		-0.61954155		0.29368868		2.340384309384396		-5.195347089347953		-1.3487486587962587
H		-0.91363281		-2.52442873		0.39201574		-0.48913869073622546		-1.2772200042930486		0.015224478605928274
H		-3.37572111		-1.46775451		-0.20304067		1.584260882039806		0.7677449163012084		0.10552943641224422
H		-3.32924722		1.03202793		-0.2779771		-2.7661996612775814		1.2164377380877736		-0.4794374044354157
H		-1.16957351		2.36912885		-0.19037903		-0.9491610784309104		1.6117654633781437		0.04432283534767582
H		1.1856559		2.58983782		-0.16372917		-0.2826099473469244		0.5539877735940615		-0.14607326439086193
H		3.22557287		1.43267027		-0.59118676		-0.5860166736745303		-0.7597833926390891		0.629461425883901
H		3.45922585		-0.98874652		-0.28032734		-0.09069082896290066		-0.4377106119102587		0.24935797351120934
H		1.44466101		-2.47878463		0.28554817		-0.703910750689843		1.5227811784015939		-0.22762886111634376
18
Lattice="50.0 0.0 0.0 0.0 50.0 0.0 0.0 0.0 50.0" Properties=species:S:1:pos:R:3:forces:R:3 Energy=-10478.2268299118
C		-1.08068892		-1.4459912		-0.1461638		-0.5025271960246296		-2.2134566615491176		-1.0644186948826226
C		-2.3292275		-0.88536012		-0.24230485		1.0737755562091782		2.5244529757611813		1.2423174336749223
C		-2.52811586		0.52643032		0.0543359		5.051112266533612		-2.9895784889328745		0.47408868718817193
C		-1.38461333		1.2370631		0.40215229		-0.02922737469642119		2.4403543009374986		-0.9444992570938022
C		-0.06223887		0.74110776		0.17988537		0.139548216043134		0.8635405162471156		0.36980567014752386
C		1.13930299		1.51874962		0.10275736		2.009153876398921		-0.44014873757900985		-0.23571395199451772
C		2.3897734		0.84493524		-0.02358686		-2.029627004918576		-1.5713445855508315		0.2893828500356355
C		2.46420322		-0.59437097		-0.12081653		1.264696675205276		1.4323795471178817		-0.7702375493561512
C		1.28394209		-1.26767808		-0.13734755		1.7056764961575164		-3.510692652226688		0.3077319902660136
C		0.07856916		-0.65262611		-0.00788727		-1.981326570196681		0.02221638785859125		0.16451074772451993
H		-0.95498159		-2.58342846		-0.41691621		-0.15400146655651728		1.842264086955399		0.7333672620965176
H		-3.16807329		-1.4783086		-0.33238964		-2.289583888252629		-1.6973710103197044		-0.7094419134146404
H		-3.38990459		1.00568993		-0.12342189		-4.015530858581705		1.86694066054753		-0.22554966144345628
H		-1.43838922		2.3631661		0.60778826		-0.1579544861848881		-1.1807412622475641		-0.19477653954994856
H		1.26772341		2.6183751		-0.02213861		-0.8558115745734333		-0.23343451481047084		0.6085207679724993
H		3.33598599		1.30594239		0.07935848		1.2346493243011123		1.3759355032107508		-0.2920745378943013
H		3.44047744		-1.084163		-0.40926454		-0.6766707872848453		0.29742227812235866		0.7338964465411356
H		1.25394386		-2.41252048		-0.109584		0.213649002109826		1.1712617593020782		-0.48690964717337437
18
Lattice="50.0 0.0 0.0 0.0 50.0 0.0 0.0 0.0 50.0" Properties=species:S:1:pos:R:3:forces:R:3 Energy=-10478.656784403829
C		-1.19899209		-1.51115033		0.13953713		1.2228442071595043		1.7541653927382712		0.23356821217282694
C		-2.4201508		-0.92207029		-0.09012127		0.006230091397545323		2.337540977863581		0.7025328451045758
C		-2.50623418		0.52215454		-0.20069563		1.266744507420072		0.12813287813485644		-0.2913950467611575
C		-1.31008945		1.26992989		-0.21735728		-1.4422915610305898		0.6866015702503456		0.6857012213590021
C		-0.04907657		0.70733608		0.00364393		0.4377865108744271		-0.7569085908160578		-0.57261058204077
C		1.13500594		1.46371139		-0.25008572		1.0262810594719782		1.403890336127854		-0.6083029441159838
C		2.40244541		0.90506816		-0.18247076		0.04793811486991014		-1.3539385332926108		1.1748102929872595
C		2.52543219		-0.50039685		0.23191579		-2.274661102887064		3.2277877993516437		-0.97599470469847
C		1.37004795		-1.26586949		0.34149373		0.008504952018034672		0.6370077163917799		0.059028002544975464
C		0.02085015		-0.70378213		0.25262214		0.9170404413910404		-1.4654975664809287		-1.0708771516594848
H		-1.19991586		-2.56701964		0.25551093		0.4538424842300855		-1.4408171876561766		0.30428136418772705
H		-3.3388544		-1.45552554		0.08861078		-0.6968660309790493		-0.7055423727312119		-0.429316782969167
H		-3.44748774		1.08808065		-0.31433964		-0.07964290169079019		-0.3913034861055134		0.04471035201025878
H		-1.25276147		2.37991012		-0.2219905		-0.6885308231891445		-0.19903876003979923		-0.42849145886693013
H		1.09309922		2.5405148		-0.63085439		-0.41248572486628016		-1.0308185936841574		0.5829513016880791
H		3.37578388		1.44431929		-0.32341367		-0.8335971921752775		0.04744173770113183		-0.12815015594783785
H		3.54226859		-0.69801774		0.41437128		1.5684558483488777		-1.6454979249653414		0.24229721011693298
H		1.59452396		-2.31437628		0.39331039		-0.5275927775191546		-1.2332054956317908		0.47525807631022604
18
Lattice="50.0 0.0 0.0 0.0 50.0 0.0 0.0 0.0 50.0" Properties=species:S:1:pos:R:3:forces:R:3 Energy=-10478.521197288323
C		-1.15698907		-1.42702726		0.39455713		1.104357645140704		0.888075216368962		-0.08719587706678686
C		-2.38162246		-0.88077095		0.04450279		-0.42640814542904715		-0.932829894197048		-0.46884235126725554
C		-2.534335		0.45302452		-0.35305302		1.3958890117894023		1.8324970318367226		-0.8910414980410822
C		-1.39414628		1.3690853		-0.27232921		-0.450404353712973		-2.8460484569064		-0.7306128393216692
C		-0.07603255		0.78043593		-0.10945441		0.07358692539668249		-1.2191758086467643		2.172117539952731
C		1.21412922		1.42331469		-0.03379898		-1.9326782652223475		1.709020781410667		-1.9693238894911602
C		2.42764062		0.82178188		-0.11642667		1.3944989191753359		-0.5271048849906796		0.9319052740922307