16
Lattice="50.0 0.0 0.0 0.0 50.0 0.0 0.0 0.0 50.0" Properties=species:S:1:pos:R:3:forces:R:3 Energy=-13472.568781204849
C		1.70722888		-0.14054578		0.02273339		-3.434999479152272		-0.5658751146135186		1.5992695936717163
C		0.16228803		-0.28540826		-0.04331803		2.4653566847172788		3.1780016269795346		-0.6381652270174092
C		-0.574436		0.94053854		-0.20638002		-0.8359064541555422		-1.3007403528111114		0.701194174552954
O		0.0431572		2.10418086		-0.12162084		0.5053593689578942		1.3762710321682021		-0.233788761398652
C		-2.03876903		0.82221538		-0.23231337		1.9069014651821503		1.521677609519469		0.1310382760850422
C		-2.67022544		-0.39723734		-0.07164741		1.026511276045543		-1.3837380298557913		-0.30051156136784657
C		-1.91375662		-1.6073308		-0.00692963		1.4782094088496236		2.3534399082405337		0.23598042112210596
C		-0.51261279		-1.44462707		0.10072142		-1.2762910647349859		-3.470353021258038		0.13239530431295682
O		2.29369056		0.92629287		0.12530761		0.7368893134195397		1.3172599474817712		-0.583863837608222
O		2.3090552		-1.27980025		0.2872154		2.5449622539907346		-0.586240771022664		-0.2504807742446885
H		1.07375579		2.03452264		0.05415208		-1.5193420194432325		-0.824201918568076		-0.4782586564979968
H		-2.57439105		1.78751774		-0.2989151		-0.11488048704574333		-0.2429346894250594		0.13434296635011078
H		-3.72619296		-0.47460609		0.09127785		-1.2111360720276667		0.19849137218507582		-0.28469336362893227
H		-2.26917733		-2.6112583		-0.04452371		-0.9354988535041133		-0.9472144448350053		0.3665343528009819
H		0.04240721		-2.35299975		0.39927701		0.1985239737726657		0.02536305812576738		-0.4688315012120796
H		3.29404809		-1.00388923		0.39053886		-1.534659263449811		-0.6492062123110897		-0.062161354497978424
16
Lattice="50.0 0.0 0.0 0.0 50.0 0.0 0.0 0.0 50.0" Properties=species:S:1:pos:R:3:forces:R:3 Energy=-13472.364578839697
C		1.63774559		-0.18467697		0.07241935		1.3369539803333266		0.014743785166195586		0.2901255388835237
C		0.09911939		-0.27068507		0.1299876		2.5500882622855303		1.1084810774840164		-1.5865865476579903
C		-0.54608249		1.02044367		-0.07271147		-2.179042291991841		-4.361044695008309		1.120609125177777
O		0.0021101		2.16596196		0.13644771		0.5271786756502878		1.829896361028584		-0.06181420415441452
C		-1.96320959		0.85814974		-0.21694527		0.5254387073233479		0.12693027036046314		0.0274460630312757
C		-2.62923093		-0.38162164		-0.19648427		-0.07347816773461203		-1.3449465114991004		0.13375449226749409
C		-1.95731481		-1.65410548		-0.08087007		0.2069105007808903		1.134086642056273		-0.23331809526109606
C		-0.58346378		-1.49167104		-0.0366184		2.0319673258245574		-1.8153247369274528		0.7349464336341931
O		2.28073402		0.85827453		-0.17258544		-1.4039271543245644		0.39329547396049475		0.38004375135819346
O		2.43346159		-1.26918176		0.33443822		-0.35525970565555287		-0.4349572175766593		0.23543231335850828
H		0.96500029		1.97137651		0.2608821		0.7035984645046164		0.15660002906009576		-0.3749361007396902
H		-2.44802027		1.82415265		-0.26292846		-0.9557712817140466		0.37168674061381196		-0.14441084053408845
H		-3.71758679		-0.50725021		-0.25222789		-0.3095257460702707		0.7741982822938887		-0.06863302674488878
H		-2.38218233		-2.70450513		-0.029596		-0.0497996449524693		1.2912336990166549		-0.2544704578035824
H		0.11437154		-2.39503679		-0.04743889		-0.7923546412121616		0.7459212387335071		0.14202881633546444
H		3.40861068		-0.97704702		0.37775956		-1.7629773858911628		0.009199612659599593		-0.3402172611506788
16
Lattice="50.0 0.0 0.0 0.0 50.0 0.0 0.0 0.0 50.0" Properties=species:S:1:pos:R:3:forces:R:3 Energy=-13472.88201346418
C		1.6674289		-0.19313586		-0.07747245		-2.360304393622459		-0.5168625357488272		1.1323794810051724
C		0.18217597		-0.33340465		0.00045692		-0.18357784279075037		0.8938872463988322		-0.5744504120129775
C		-0.54233004		0.97322526		0.01213869		0.14991079006698207		-2.897477821283928		0.4074878089290338
O		0.07311339		2.1143948		0.04066819		0.4515648468182241		1.214409857633206		0.26958766998725114
C		-1.95716575		0.89742029		0.10670315		0.23579653582680385		3.1007695972644003		0.5496633838307152
C		-2.61225572		-0.26341983		-0.02786063		-1.5709928072216472		-4.180797767734474		-0.20511823621644412
C		-1.95594375		-1.56360194		-0.08011758		0.5177185588223435		1.1374465081943446		0.2624844319693954
C		-0.56209943		-1.56912587		0.01117873		0.5080026172337372		-0.04999875117825503		-0.023263135361714767
O		2.18090806		0.93154119		-0.08165916		1.4492427954318592		0.11578016745027514		-0.1456391593397041
O		2.36238392		-1.32934932		0.04176052		0.011368800941765166		-0.04529162700413322		-0.27429551407024716
H		1.08349801		1.8896104		0.10586258		-0.3965498734484924		-0.0035065732822263085		-0.4203619907488664
H		-2.54175422		1.83273042		0.39608989		0.7025625156346063		-0.7411167211731152		-0.71349145225422
H		-3.72290091		-0.33703223		-0.03956493		0.2874659383918235		0.4511121784025237		0.14855571587744035
H		-2.46155144		-2.55093936		-0.07601234		-0.2712114244530662		0.5547476374108063		-0.08775617185918388
H		-0.05781718		-2.57313864		0.12483545		-0.02371852914672468		0.9365270376426942		-0.2689610407343005
H		3.29312619		-1.06003928		0.13212017		0.49272152293705723		0.030371567007877343		-0.05682137900135018
16
Lattice="50.0 0.0 0.0 0.0 50.0 0.0 0.0 0.0 50.0" Properties=species:S:1:pos:R:3:forces:R:3 Energy=-13471.88861172331
C		1.66003107		-0.105588		0.20103485		-0.6978217614316459		-1.182120504806455		-0.9477839955986423
C		0.09286517		-0.25518944		0.11560398		4.376065542246956		0.09300281631247508		-0.9970670030897301
C		-0.62867124		0.96265068		-0.14554559		4.762694814298313		-1.0833994523060086		1.054415561075263
O		-0.05370656		2.1367383		-0.29350868		1.9817988818402348		1.5830637764260944		0.03505832804527106
C		-1.92934778		0.8173899		-0.12622		-5.202359978802093		-0.24162250123559662		-0.5294240200069339
C		-2.58287803		-0.42256688		-0.06668012		-0.8338924576578346		-1.3393154871290354		-0.20754021535758763
C		-1.9302862		-1.66548049		-0.00756625		5.017492933483792		5.565637823810518		-0.7851822919423804
C		-0.45380813		-1.51914603		-0.01219664		-3.3367326891514626		-0.6945906047158731		1.1731188156652048
O		2.24845122		0.97456183		0.17561331		-0.11034675806618492		0.2404047239527821		0.29003339054762295
O		2.39042871		-1.29073705		0.14782848		-3.2018933970546355		0.3494317862083873		0.16800199723213774
H		0.99897222		2.11975113		-0.17920403		-2.054609025561628		-0.8440249693743053		-0.03356024910007075
H		-2.5369077		1.71124892		-0.2302846		-0.3937478338438204		0.4303271236520797		-0.10153733601641542
H		-3.67015887		-0.44231984		-0.18071383		-0.4123497135111139		0.24459654763914598		0.3257391737811347
H		-2.16307698		-2.61454802		0.19597263		-2.3445311901881833		-4.103187991548621		0.41012025857176326
H		0.05517337		-2.48021565		0.1125526		0.7842407025569562		0.22325340924499001		-0.02830172615035485
H		3.30789871		-1.1239318		0.30236805		1.6659919308423488		0.7585435552914858		0.17390926092165548
16
Lattice="50.0 0.0 0.0 0.0 50.0 0.0 0.0 0.0 50.0" Properties=species:S:1:pos:R:3:forces:R:3 Energy=-13472.698931536825
C		1.66023246		-0.10930984		0.20539013		0.3521851291199242		2.154411484035286		-0.06853419354087012
C		0.18578806		-0.2556158		-0.07697099		1.00940474995414		-1.4334015606089698		0.3901869588636525
C		-0.65820668		0.87877832		-0.23863639		2.7834465181773957		2.5506986421667484		0.1165461504924508
O		-0.10346596		2.15405028		-0.25488386		-0.8207236788422567		-1.3127091977995435		-0.06798670284202182
C		-2.04187201		0.83205462		-0.28055545		1.3958786759548507		-1.0719192711769883		0.22042905246521693
C		-2.55911874		-0.4161539		-0.19828129		-2.6409104231959146		-3.1614010939825876		0.36653337578179546
C		-1.79653848		-1.64755538		-0.09710269		0.04405112116971823		1.5000203337458384		0.2053662448236147
C		-0.38112981		-1.57095616		0.00067343		-2.1939547415228557		1.0594480840605345		-0.10312164976033542
O		2.2760392		0.98346736		0.22355782		-0.9793182154383934		-0.6658267999123905		-0.33951077343475156
O		2.29811459		-1.23113145		0.51234284		-1.0348693152311732		-1.8340100746020942		-0.09199381260318595
H		0.87325097		2.04715959		-0.13764021		0.41140982105375057		-0.1679482097548206		0.0894521743227337
H		-2.54109234		1.73867283		-0.11481346		-1.2531304649657855		1.6261885805629344		-0.20384214631481737
H		-3.70351142		-0.56659423		-0.10178138		1.455690350731483		0.3515184420803292		-0.245646123355704
H		-2.42244428		-2.53716128		0.08453173		0.5147062544043353		-0.24044874123823473		-0.20573884908808873
H		0.17924224		-2.46468111		0.25355379		0.5662478731441799		-0.21634470088936247		-0.08707452099941747
H		3.26393657		-1.20823896		0.54955258		0.38988634548660106		0.8617240833133204		0.024934815189728243
16
Lattice="50.0 0.0 0.0 0.0 50.0 0.0 0.0 0.0 50.0" Properties=species:S:1:pos:R:3:forces:R:3 Energy=-13472.412917489148
C		1.65821991		-0.13793201		0.05404025		0.7157557713519079		-3.399813984346576		1.1416885712357168
C		0.21807102		-0.26921013		0.11993804		-1.825632495032735		0.35497364472217324		0.49856420051614453
C		-0.57869521		0.91805207		0.16322958		0.2160624451886037		-1.2023859396158958		-1.686917470667392
O		-0.1144201		2.12755482		-0.05087389		0.522826003752597		1.8965653220983987		0.5858951633409735
C		-1.94014486		0.85944603		-0.06414639		-1.343743183815833		0.33618839398020206		0.25075233415645876
C		-2.60439587		-0.32180028		-0.22272109		0.7779768268643847		-1.378235560641838		0.8548181003270025
C		-1.89066446		-1.54991721		-0.10414979		0.42380464640747395		2.582500770951836		-0.30264079470749267
C		-0.51183473		-1.48860212		0.03093022		1.1603750401957318		-0.8866479970258103		0.4166677783607795
O		2.29349739		0.81578924		-0.29704628		0.7059900532068553		2.51803807347121		-0.8552222263157552
O		2.339035		-1.29547446		0.44132344		0.4259872044258752		0.778694884544362		-0.4673560993964175
H		0.70435811		1.97621857		-0.52339914		1.8252083658616913		0.3358478770826934		-0.1987921912503771
H		-2.41050986		1.81593225		-0.29646261		-0.2868044449805353		0.2969245639799568		0.21094044781467838
H		-3.66032318		-0.36252289		-0.38675058		-1.12043439300959		0.1004703282206887		-0.4089892303082929
H		-2.46370744		-2.38627384		-0.35714638		-0.6674326080784123		-2.231913839532692		-0.06127324405749669
H		0.11085955		-2.40578496		0.0770009		-0.27892483666389023		0.08979737062792469		-0.17792182729833725
H		3.3141894		-1.08534477		0.27724483		-1.251014344252063		-0.19100395993869607		0.19978648824980702
16
Lattice="50.0 0.0 0.0 0.0 50.0 0.0 0.0 0.0 50.0" Properties=species:S:1:pos:R:3:forces:R:3 Energy=-13472.134160352107
C		1.60742401		-0.11822686		0.19509244		0.2416543829143123		-2.0150071469228723		-1.3340829323208538
C		0.17271828		-0.26751183		-0.08598508		0.18018403809146522		-2.7813897385237345		0.6969891353965417
C		-0.60218341		0.89058582		-0.20701359		-0.04869952134852823		0.8671167150018919		1.4239427293325866
O		0.07326239		2.02503464		-0.2148622		0.25436385986813465		0.7332101676957491		-1.5769766897842075
C		-2.00305558		0.85623967		-0.05405474		-0.09729954100622604		0.349290786913164		-0.21442115579949503
C		-2.66225248		-0.37603231		-0.02271941		0.8308264171845718		-0.027558780192154395		-1.5819575850187846
C		-1.89559406		-1.58391458		-0.10266284		1.517129122407989		1.313156672586937		1.1173887156730553
C		-0.47345132		-1.5329972		-0.00292129		-0.2811108913825376		-0.43047671043173114		-0.29510118906773153
O		2.17870256		0.93684545		0.12489329		1.552550335947932		3.5773916952030334		-0.341446814085793
O		2.39940145		-1.18543591		0.32122131		-2.8008837395523805		-2.8176495944800872		0.6123479578140681
H		1.02290712		1.67829471		-0.50749971		-0.6442798244627038		1.420762017660072		1.29032512259532
H		-2.51714825		1.83892692		0.0229756		0.006298431318534277		-0.3993923307942459		-0.2542352018678981
H		-3.72099228		-0.33573115		-0.32397078		-0.32289990460325274		-0.40311492816080224		0.8684303430091033
H		-2.35077921		-2.51338813		0.12364314		-0.9054057369643739		-1.458907212113896		-0.28625371469175304
H		0.18987293		-2.46165472		0.11241162		-0.9959908935889507		1.0086656092285604		-0.09880785294185283
H		3.32185337		-1.00431755		0.24182357		1.513563465176014		1.0639026744859907		-0.026140868242305316
16
Lattice="50.0 0.0 0.0 0.0 50.0 0.0 0.0 0.0 50.0" Properties=species:S:1:pos:R:3:forces:R:3 Energy=-13472.05434229897
C		1.67771624		-0.18256701		0.11169101		-2.8519421965934946		-3.3333324566943716		-0.6083090633414148
C		0.18725188		-0.24532351		0.06998404		-1.3084121131513555		0.941072028053928		0.36068869274227283
C		-0.67783564		1.03630524		-0.0069926		5.2215383512114535		-0.708581827998191		-0.5022435005061223
O		-0.08352232		2.33053566		-0.15081941		-0.69196144608514		-2.5518682883991146		0.26042898928935754
C		-2.03120184		0.84523351		-0.13941063		-0.10891635055516179		1.5605526887276326		-1.2272730865537378
C		-2.59205682		-0.41044201		-0.18057319		-0.6659135489317346		-2.407587494260949		1.073530375815442
C		-1.83863017		-1.66027797		0.1001361		-0.12137267669556911		3.1959219072091245		-0.8571891716263258
C		-0.43804983		-1.53643807		0.11112624		-0.736006653717677		2.302855305504847		0.3210260332257069
O		2.24216568		0.83323717		-0.12657776		2.391716691752154		3.2795587090679286		-0.13640864202057526
O		2.39175793		-1.40259127		0.24511011		-2.555193856021536		1.3252494447458603		0.11401356249498881
H		0.91488588		2.20705572		-0.27159618		-0.956992864229482		-0.39865524695116417		0.3323032000521956
H		-2.55255828		1.75350051		-0.52695917		-0.26720939959918555		-0.4153119842623636		0.5892423796516838
H		-3.70296509		-0.35007109		-0.35380677		0.6584294276973514		-0.787926687415052		0.14669007202988563
H		-2.30975683		-2.60082599		0.29919547		-0.6476343427062813		-0.8817956055252825		-0.2047453748416579
H		0.26754216		-2.33607816		0.18475057		0.37123895729404394		-1.1867491589132864		0.19886382218336246
H		3.22021036		-0.97116859		0.3954049		2.2686320203316144		0.06659861568839065		0.13938165998287574
16
Lattice="50.0 0.0 0.0 0.0 50.0 0.0 0.0 0.0 50.0" Properties=species:S:1:pos:R:3:forces:R:3 Energy=-13472.035274133194
C		1.58536846		-0.1081344		0.2925832		-1.0135205718322107		-0.810855425104689		-0.9886841784700016
C		0.17117223		-0.27184798		0.10741089		-0.48931450276772387		0.7511796074170358		0.38172854381213034
C		-0.55007331		0.8865059		-0.25324921		-2.5019703244632514		1.319508068629789		0.0844978642944404
O		-0.08438753		2.14532102		-0.31060615		3.9662616836254156		-1.2651219870837558		-0.6831939844383252
C		-1.95571757		0.84058346		-0.48776859		-1.1423191599874758		-2.665321916056144		0.7752647244469284
C		-2.58697252		-0.46908609		-0.19115859		1.8434677231710415		1.3235775078075345		-1.7134752689919985
C		-1.79157363		-1.6589181		0.0153797		-1.143137953487782		1.4208923725883693		0.5963288026551201
C		-0.45970385		-1.51395819		0.28554785		2.2808787501454977		-0.7308097343987698		-0.4692445232176352
O		2.21853043		0.90748561		0.45591211		0.5066495485046307		3.854452996323929		0.5662880337749492
O		2.30413334		-1.1648516		0.06874326		2.328355454849091		-2.1858692392681816		0.7410892103697073
H		0.97575323		1.92543336		-0.34961467		-2.0812869458241057		1.3240207659858076		0.7509446085916638
H		-2.46915286		1.8024121		-0.86171708		0.4375647789411657		-1.4524442816176013		0.7544396119098401
H		-3.64681504		-0.61272306		-0.35940139		-0.7210610883784486		0.11087949063311162		-0.023852792151767693
H		-2.19316791		-2.66296722		0.05891696		-0.7394460183642884		-0.38159510356008636		0.1141201604304366
H		0.2772115		-2.35136133		0.52543623		-1.1528870108846028		0.5525508354811078		-0.23669282237521427
H		3.1801743		-0.72641677		0.34483088		-0.37823436324695314		-1.1650439063553948		-0.6495579906402735
16
Lattice="50.0 0.0 0.0 0.0 50.0 0.0 0.0 0.0 50.0" Properties=species:S:1:pos:R:3:forces:R:3 Energy=-13472.454787572196
C		1.69696183		-0.08252778		0.19056022		-0.25422574020840827		0.246592443570873		-0.8637101062090583
C		0.16343173		-0.26237567		0.00992294		0.8262648688692309		-0.6606547688717065		0.3431383428299102
C		-0.6338697		0.9125894		-0.20203099		3.784272782564205		-0.866156767940175		0.4658823430867535
O		-0.02425998		2.05965932		-0.46877005		1.2608674284812091		1.1344230451887858		-0.5035897815229861
C		-1.97213397		0.8532097		-0.09145835		-3.2223940363776986		-0.25902964070405093		-0.19445813413929125
C		-2.67803555		-0.36602029		0.01454861		-0.0953659686141819		-0.09746609706648428		-0.3960725224428186
C		-1.94277285		-1.61403859		0.0933793		0.7056615176498963		2.0544376358275		-0.025181589667400164
C		-0.50138771		-1.54796883		0.10203832		-2.1671134019459286		2.9366531539147056		-0.23089565332139053
O		2.39030696		0.97561629		0.29963154		-2.0740597806357584		-1.944783944318944		-0.38727631586309735
O		2.32452687		-1.29460049		0.10615525		-2.3518299348874536		0.2630382990039869		0.15378616238106146
H		0.98712461		1.92798883		-0.57591686		-1.3704798794956847		0.0227456237252717		0.6771638220195647
H		-2.50467052		1.8081814		-0.19901123		-0.20576358310012463		0.0013543028586050314		-0.03919605572194313
H		-3.81748412		-0.22014117		-0.11790857		1.4474879661288726		-0.8708305191957703		0.5404529211159398
H		-2.48116042		-2.55443748		0.18476833		-0.05280747565104485		-0.4428765751475742		-0.10677364463515522
H		0.05184805		-2.43267652		0.09395444		1.2938280963331752		-1.8191138744428128		0.3009221665364672
H		3.22368439		-1.05363761		0.22064511		2.4756570894676315		0.30166763217572745		0.26580814839756856
16
Lattice="50.0 0.0 0.0 0.0 50.0 0.0 0.0 0.0 50.0" Properties=species:S:1:pos:R:3:forces:R:3 Energy=-13472.587285692745
C		1.70642558		-0.0797009		0.08208027		-1.6360012470509993		-1.4323909113936824		2.406546711717069
C		0.1639735		-0.21389658		0.13850079		1.5099205205841841		-0.9561361726691537		-1.2876865023050972
C		-0.65453479		0.92353417		-0.05994565		1.1225762761765976		0.12246760667120325		0.005754231631682432
O		-0.10992636		2.13662906		-0.24255464		-4.114609037305829		0.6237462750196765		-0.18860445223884087
C		-2.04102319		0.77246169		-0.14468392		-1.7138443765562263		3.9150199583537475		-0.7363284529844558
C		-2.61306998		-0.44456504		-0.22440314		-0.6123021407564299		-3.5193142809044096		0.09611698783618618
C		-1.7755161		-1.6294475		-0.14895348		-1.6919525647557856		0.3333618260517439		0.11176940084577891
C		-0.42886498		-1.5198543		0.04541848		0.8884067344055429		1.441649608003031		-0.10909740763702946
O		2.32212162		0.9643918		0.04845138		0.36170535833886625		1.0464398963459713		-0.6555723664858636
O		2.29864		-1.26559793		0.45074432		-1.094315636254136		-0.11317080631358324		-0.668980566424184
H		0.79149124		2.03593225		-0.11375077		4.237959817899521		-0.2116809255138815		0.42244854377668334
H		-2.70288103		1.7554891		-0.32081709		1.4491838657482974		-1.9037036813849042		0.48118431474078577
H		-3.71261522		-0.63203307		-0.36307015		0.6775742214999357		0.472189361889716		0.08948338751463761
H		-2.20914453		-2.63836136		-0.22094672		-0.21234303598991897		0.08909155139880927		-0.11236985626894522
H		0.23106095		-2.37688181		-0.02398614		0.2766589749043286		-0.4672681676696371		0.31274774965892826
H		3.2310288		-1.1678746		0.68695438		0.5513822176899904		0.5596988621153528		-0.16741177479939792
16
Lattice="50.0 0.0 0.0 0.0 50.0 0.0 0.0 0.0 50.0" Properties=species:S:1:pos:R:3:forces:R:3 Energy=-13471.977782627004
C		1.68305513		-0.10716809		0.13552245		1.6754130183248976		-0.13704154476514413		-0.22942266834266326
C		0.23362406		-0.17886866		0.04682944		-2.1810086202376624		-0.7325486742844611		0.11028032076150641
C		-0.63111923		0.92832036		-0.17118822		5.656501893701794		1.8238504634587152		1.3887131143973122
O		-0.16658894		2.2288183		-0.1349882		-3.809749894824474		-0.6217869401743477		-2.0829087976736105
C		-1.94868307		0.80881931		-0.23076426		-4.327633518467265		-2.600528266181623		-0.007504330104924017
C		-2.63805423		-0.41243803		-0.17587274		4.434530524630225		-2.0420793715601753		-0.331854542557366
C		-1.79676311		-1.6135218		-0.08621249		-2.3160030012748223		2.0354084388212916		0.22282326369264036
C		-0.47770913		-1.44113999		0.17051145		2.729891211472218		0.014126154774172768		-0.8643827582078967
O		2.4790594		0.84147437		0.00758385		-1.513264548727023		-0.6195677182254233		0.3236656305351162
O		2.15866683		-1.38109373		0.32802662		0.23542094908270805		0.26290660710206615		0.16861777642991255
H		0.61310824		2.4541622		0.29692345		3.132844262980445		-0.3089428769924605		1.349283911044245
H		-2.52847653		1.6605138		-0.14279708		-1.3014060114094577		2.461449430724484		-0.1597855229844176
H		-3.6513391		-0.63632316		-0.19861438		-2.6243408977026212		0.41252866228842144		-0.14098376576040159
H		-2.19946459		-2.62707673		-0.1278406		-0.35167090849547755		-0.16508461794140233		0.11821459073053026
H		0.10334109		-2.36902626		0.27321512		0.30525282979143165		0.19136674258924313		0.19653558546205555
H		3.12400563		-1.27584658		0.4230245		0.25522281399921026		0.02594345894458026		-0.061291704577914316
16
Lattice="50.0 0.0 0.0 0.0 50.0 0.0 0.0 0.0 50.0" Properties=species:S:1:pos:R:3:forces:R:3 Energy=-13472.220397962365
C		1.57932932		-0.06575843		0.13095126		1.5834350437169449		-4.253257572944432		0.31599453868168415
C		0.18649665		-0.19843604		-0.10510585		-0.6903671564611058		-1.3343813345492204		-1.2383587061976202
C		-0.56716496		0.96976471		-0.29937861		-0.4998459982667025		-0.005106827865504152		2.1867038707637207
O		-0.01136982		2.19248174		-0.22713896		-0.65793341048301		0.14965301126794697		-0.24617026843820236
C		-1.96667388		0.81017827		-0.13414227		1.5550793244010233		3.693841480750463		-0.9754349755487599
C		-2.50254934		-0.40525507		-0.01434295		-2.043173735893122		-1.0991405169512563		-0.4641611438126058
C		-1.77185094		-1.58952323		0.06381906		-0.7715237694040794		-1.520407124622649		-1.346718001550319
C		-0.4060943		-1.52699341		-0.12223357		-0.08933292655992452		1.2227192515477634		1.4128436371083435
O		2.24475151		0.89696529		0.40918987		0.7731469068051452		1.7287700929793508		0.15165734041791495
O		2.13061528		-1.40185314		0.16295005		-1.5382085170438662		1.5395242019335753		-0.41407230118094773
H		0.83993165		2.0632814		0.24555342		0.7840538347820323		0.07174128473141873		-0.2787999324742121
H		-2.5450101		1.76639607		-0.11998702		-0.027140153181792415		-0.5919157612561193		-0.18380230009332132
H		-3.57055676		-0.35605864		-0.20721484		-0.8334254939087745		-0.7348594789265992		0.7104740570520295
H		-2.3394873		-2.56446843		0.0076308		0.5827706559827109		0.6474363163438068		0.3242296277160092
H		0.19607144		-2.42816738		0.01157503		0.2980189797349665		0.0496123143789834		-0.2907774677911972
H		3.06586682		-1.36794975		0.31147742		1.5744463643574933		0.4357706631824715		0.3363920767695453
16
Lattice="50.0 0.0 0.0 0.0 50.0 0.0 0.0 0.0 50.0" Properties=species:S:1:pos:R:3:forces:R:3 Energy=-13472.263733172998
C		1.61958905		-0.15256034		0.12749999		1.8971400150682802		1.684057067021845		-0.5133766855577662
C		0.19537583		-0.29958876		-0.01237444		-0.399158051877748		0.9200187558257726		-0.9436689450515083
C		-0.5730958		0.9086316		-0.29784871		3.6766480513735287		0.70160657949376		1.8257040745436581
O		-0.08822618		2.20562575		-0.28675472		0.338187632345988		-1.2142699382012938		-0.3264607795834206
C		-1.89014808		0.81549016		-0.13302354		-4.270592515837214		-2.888871002160191		-1.471333302081586
C		-2.60778608		-0.44780624		-0.15215716		2.3234340035187		2.4730549274196822		1.0561027189440724
C		-1.85019034		-1.54568413		0.15575232		-0.6765522594309105		-2.2957872401777033		0.3342234027080042
C		-0.47201775		-1.52397252		0.17147087		0.26832757234704474		0.7358285276933687		0.7950156815216104
O		2.25488164		0.94019458		0.1115906		-1.094099149371244		-1.0165599242550647		0.21332344903248882
O		2.28802347		-1.30092004		0.1966463		2.2995821369640566		-0.38122234502942504		0.7416609722820294
H		0.89559399		2.18116625		-0.10411325		-0.19980206913472776		-0.4786102805609935		-0.17018121281648002
H		-2.4117184		1.71890717		-0.12404877		-1.3467749257734452		1.936104157288598		-0.07800099523693217
H		-3.65099277		-0.56047049		-0.03540525		-1.7694146053562354		0.41168729450270186		-0.05150526334169626
H		-2.36409238		-2.44246884		0.58898308		0.21479514845965506		0.1813362008226003		-0.7423068333863344
H		0.00813693		-2.37918872		0.63351525		0.7307583123363253		-0.3869533853109449		-0.20355659960206218
H		3.27676013		-1.04838434		0.37691842		-1.9924792956320536		-0.38141929152858806		-0.46563968237407716
16
Lattice="50.0 0.0 0.0 0.0 50.0 0.0 0.0 0.0 50.0" Properties=species:S:1:pos:R:3:forces:R:3 Energy=-13471.755784609244
C		1.72361366		-0.18055245		0.16844722		-4.2051754248776145		4.175377368132183		-1.941973265807782
C		0.14241823		-0.23165125		0.39616079		1.6210658118580723		0.951854617483824		-0.6607816785218199
C		-0.64074303		0.97766112		0.07668984		2.616521144666662		0.2809808449866151		-0.17757961347276802
O		0.0362365		2.18964775		-0.08888581		-7.844059370702097		-0.15228587228717605		0.6603524071445319
C		-2.01820724		0.83237358		-0.20573286		-1.3410573066502236		0.03468181570405125		0.07867395576814545
C		-2.60831439		-0.45883792		-0.35971476		0.400484483978508		-0.29530060382589196		-0.331696111182974
C		-1.81725416		-1.59983971		-0.10008393		0.08199109017232561		-0.21311590958846222		1.1751152258175563
C		-0.49460869		-1.46434484		0.37692572		-0.2285795522068206		-0.9607641068671109		-0.9135879126964432
O		2.11369815		0.83706697		-0.43976579		1.0874956823782878		-0.7832296419651692		0.9863070907893721
O		2.40098277		-1.24147929		0.31638584		3.299138790629107		-2.912171932737802		0.48409315796915536
H		0.9290128		2.10877246		-0.12163472		5.252297434881914		-1.374919968899531		-0.16118260899897657
H		-2.76461051		1.67794387		-0.27433886		1.1554736434696942		-0.22213688200312906		-0.29242137970549054
H		-3.63307767		-0.59032946		-0.83161088		0.7811002543593358		0.34291331988465235		0.8066880268979865
H		-2.14317465		-2.65533098		-0.03488578		-0.6245990585032588		0.327867738633969		-0.626023346788851
H		0.06853239		-2.42790604		0.44847557		0.004618523960529654		0.6480403198892819		0.3717042755371056
H		3.37593232		-1.12999721		-0.01886079		-2.0567161988364857		0.15220889345969638		0.5423118286733143
16
Lattice="50.0 0.0 0.0 0.0 50.0 0.0 0.0 0.0 50.0" Properties=species:S:1:pos:R:3:forces:R:3 Energy=-13472.449856287249
C		1.62057335		-0.23306641		-0.05186482		-0.516859604691268		2.9143176725594926		1.2745564443025401
C		0.16103105		-0.27678158		0.09332066		0.9400841588123037		-1.2551457470150547		-0.9789749731715753
C		-0.57166699		0.92405272		-0.00573801		1.9109224133550105		1.4294116199397635		0.2731003624949083
O		0.12920483		2.07733955		-0.03967069		-2.544675164616106		0.354061880132967		-0.06616579618879394
C		-1.94301731		0.92852942		-0.02949265		-1.601757701585164		-2.741464723644576		-0.02996281303350473
C		-2.68113707		-0.31773699		-0.07071944		1.0446727771700604		2.0389916309765606		0.5986384760118845
C		-1.92037475		-1.46660302		0.01871386		1.5632672594040864		-1.019421202075673		0.5517549247985895
C		-0.50186015		-1.49904662		0.13634171		-1.4889822795097176		0.9701455993615773		-1.3496356379513665
O		2.20444005		0.88485547		0.04889924		0.584617942153973		-1.3409267460336762		-0.3702854379901325
O		2.3081871		-1.34089802		-0.0976586		2.2110741231298694		-0.9445000798468015		0.9130763145971814
H		1.06233672		1.76771272		-0.01896787		1.3935365038546212		0.1677985201310442		0.16906540548349333
H		-2.37810286		1.8664688		0.12900449		-1.2479118455365268		1.8616937589839269		-0.19502274838493364
H		-3.78788811		-0.36147256		-0.07309837		0.2878511924836588		0.15230484702821812		-0.05747603327833316
H		-2.33103884		-2.43746228		0.1321666		-1.2177985201262465		-1.305249913421321		-0.27092870595374546
H		0.06930645		-2.38350101		-0.13189002		0.11690121983363119		-0.7082536009736067		0.6623470689467603
H		3.22480477		-1.06532084		0.28781253		-1.4349424741321863		-0.5737634646807794		-1.1240868506829718
16
Lattice="50.0 0.0 0.0 0.0 50.0 0.0 0.0 0.0 50.0" Properties=species:S:1:pos:R:3:forces:R:3 Energy=-13472.14153034125
C		1.6233018		-0.10150527		0.07495398		2.576014906215691		-1.0140808666246077		2.0901358600178326
C		0.15000225		-0.2158298		-0.12681325		3.207279600985401		0.4065253421862571		0.04157489175269559
C		-0.59552022		0.9569077		-0.12872861		-2.397256750493754		0.3856792494476911		-1.5370952293919398
O		-0.0622762		2.16190293		-0.47315402		0.49036248440034597		-0.9992561431321242		1.699528474371633
C		-2.01259636		0.73575355		-0.08497163		0.5985763581604513		1.864140317870919		0.017107965909151313
C		-2.64801616		-0.50331748		0.03358006		0.4667291616110921		1.9247699119727955		-0.7693259904551947
C		-1.8134352		-1.57744463		0.0506975		1.6183135488098468		-3.2113504285588332		0.0647353886777708
C		-0.41052334		-1.45576922		-0.07426318		-1.9341994326735852		-0.23775571640594545		0.749733516176967
O		2.20576481		0.93501589		0.40729339		-0.8762503531553749		0.6730355045803202		-0.7276917576424378
O		2.40078695		-1.28744855		0.21798965		-3.656494202439592		-0.11223811294496197		-2.1468742952324593
H		0.87385058		1.99741352		-0.09594403		-0.14390916689287836		0.7610206588835701		-0.609574251765803
H		-2.58384536		1.6613707		-0.18400614		-0.41665158041110945		0.21824171219500843		-0.0415087115583293
H		-3.72404175		-0.52658121		-0.11858859		-0.48756327300910846		-0.31042619780573916		0.46742361656440723
H		-2.15594016		-2.61468132		0.18605925		-0.4142381887543942		0.010451637036002196		-0.16005754569474986
H		0.32711417		-2.22237226		0.01692983		0.21236833564464175		-1.4090114079046554		-0.010790405583387622
H		3.12573437		-1.26754313		0.8263289		1.1569185520023266		1.0502545392043035		0.8726784738538439
16
Lattice="50.0 0.0 0.0 0.0 50.0 0.0 0.0 0.0 50.0" Properties=species:S:1:pos:R:3:forces:R:3 Energy=-13472.552001718119
C		1.65834986		-0.1460929		0.17287546		-2.035032492122759		-5.058018558052305		-1.3260756944452212
C		0.18223552		-0.30464226		0.11214597		-0.002387834891680269		0.2567650644960506		0.4297258454759142