16
Lattice="50.0 0.0 0.0 0.0 50.0 0.0 0.0 0.0 50.0" Properties=species:S:1:pos:R:3:forces:R:3 Energy=-13472.6062101908
C		1.65492491		-0.14389862		-0.00580516		1.5563262579932438		0.5895641789184626		1.3484294306326021
C		0.13830295		-0.25340021		-0.13844548		3.4596467421688106		-1.3940254762464077		1.4764943288009067
C		-0.57214266		0.93031043		-0.11025971		-1.38133250577463		1.324630940178776		-0.03056193148304747
O		-0.0169313		2.15627397		-0.07861871		-0.7322427130129151		-0.26284932292450275		-0.0635060414309063
C		-1.99464671		0.82448911		-0.08200893		-0.39706208861250364		0.20247174835066722		-1.1945303454024123
C		-2.6419569		-0.42452191		-0.2080586		1.1169068909479487		0.0950314680979794		0.8266725429802921
C		-1.85942539		-1.59985414		-0.01508454		-1.4315263522578006		-0.14241041946086627		-0.17798276244233416
C		-0.50759745		-1.47397273		0.16164444		1.365304557443004		-1.9076230709844362		-0.39328734927462844
O		2.28741266		0.95438727		-0.04429947		-1.3029929476785622		-1.9649806792529592		-0.09695341910391102
O		2.33611886		-1.31972927		0.37840769		-0.09987984867763668		1.1905917753735882		-0.2423518717693116
H		0.95544926		2.01762533		0.04552364		0.5641141146630387		-0.10504971999169797		-0.2797086631617342
H		-2.4860972		1.80530782		-0.21539152		-0.3572587897551515		-0.24559876363619246		0.2912361011661411
H		-3.71974852		-0.5845711		-0.27395225		-0.3666142112639585		0.4973059026481236		-0.1975771907589346
H		-2.34692228		-2.60437463		-0.03401977		0.1998145646959018		0.48857433360089536		0.29211295017494743
H		0.079141		-2.41238959		0.47266862		-0.39460591379983445		1.3059236967055332		-0.6930689230440107
H		3.29443905		-1.14230297		0.69299065		-1.798597859923079		0.328443408623037		-0.8654168558836589
16
Lattice="50.0 0.0 0.0 0.0 50.0 0.0 0.0 0.0 50.0" Properties=species:S:1:pos:R:3:forces:R:3 Energy=-13472.61309067823
C		1.59631		-0.07782258		0.10841318		1.7599337654371257		-2.2354052433064973		-0.35197820674064684
C		0.19025234		-0.30067838		-0.10984022		-0.24363973732323818		2.431953067219415		0.542122595483518
C		-0.65237749		0.91442797		-0.15187127		3.8602456402362577		0.730448597254221		0.3017835375044777
O		-0.04188592		2.13208047		-0.11167216		-1.214871062111272		0.13251578620526466		-0.31069559799088675
C		-2.01476016		0.86322624		-0.14723721		-2.349408829921372		-1.14058916754065		-0.4830583918065815
C		-2.57584956		-0.46277303		-0.12084129		1.4059257756256012		1.5896239460424717		0.18152867360233063
C		-1.74500372		-1.59882925		0.0140798		-2.520087911146441		-1.2255365635049815		0.3607233512123606
C		-0.38421367		-1.53854392		0.03431603		-0.40721948860719753		-0.10274333764693006		-0.4506481971330855
O		2.21545443		0.97020086		0.02102784		0.47137236816159517		1.019875670263559		0.1558385711594152
O		2.2785109		-1.27674393		0.35722471		0.530282099962948		0.9604113515187406		0.25735168738441916
H		0.94967909		2.10431705		-0.17288001		-0.028355050829109964		-0.8572074778805561		0.1207198221907717
H		-2.65911715		1.80514015		-0.23483206		0.8401415752184845		-1.151842680218414		0.16571515527109879
H		-3.64015781		-0.43565219		-0.21162723		-1.2368105421635989		-0.7659575882547571		0.11521380485450962
H		-2.10531765		-2.64322064		0.21516892		-0.5956405697713607		0.787804919971183		-0.4628221133065467
H		0.08523761		-2.50656236		0.07814925		1.101692645332447		-0.27335263913326185		0.22957636888731037
H		3.25243698		-1.0773402		0.53944772		-1.3735606781008691		0.10000130758913096		-0.3713710605724643
16
Lattice="50.0 0.0 0.0 0.0 50.0 0.0 0.0 0.0 50.0" Properties=species:S:1:pos:R:3:forces:R:3 Energy=-13471.815493546621
C		1.63582207		-0.08596172		0.20058047		1.3640977844815527		-1.79137254592898		-0.3369117995546735
C		0.2159285		-0.23956598		0.38457242		-2.4536104972592323		0.24184202202017283		-0.6941770170676306
C		-0.55733124		0.89407035		-0.06371744		0.6894579629750217		2.0532402731034765		0.6453251835701413
O		-0.06378854		2.15178864		-0.24083728		0.2337147650507942		-0.9634551262389649		-0.11743102134299852
C		-1.9317242		0.8565106		-0.27094527		0.5404840828857813		0.07566890186094191		0.3612658025490893
C		-2.49810272		-0.3511396		-0.18302648		-2.821138889949332		-1.6509092742846432		-0.679290741366401
C		-1.80525802		-1.59961931		-0.08578575		-0.13187362748945572		2.4405394203622994		1.5044804777540386
C		-0.48657272		-1.52462242		0.40019534		-0.9977713310790347		0.7925106557496188		-1.7621799839688337
O		2.35599532		0.92429573		0.20197828		-0.9039797003286584		-0.832953233687283		-0.23971916501626991
O		2.08883528		-1.36805258		-0.1694404		0.8547478577897031		1.4898312063386165		0.16225347344938668
H		0.90111949		2.01953912		-0.24723973		1.0719402513784657		0.43270863363007916		0.3366717613671818
H		-2.64021392		1.64465119		-0.50647534		0.5760638820663037		1.036055210835272		0.062287801349529846
H		-3.61425971		-0.15952655		-0.25718966		0.5792638255901725		-1.556129825714705		-0.1732005106349807
H		-2.43887806		-2.45243271		-0.23801424		0.02763704457119517		-1.2514482436149712		0.2262984695167754
H		-0.07986473		-2.51143867		0.52776111		1.2689674831795548		-0.406703313944378		0.45381260801180506
H		2.994905		-1.22423668		-0.52238373		0.10199915755923089		-0.10942476048655217		0.25051455853971466
16
Lattice="50.0 0.0 0.0 0.0 50.0 0.0 0.0 0.0 50.0" Properties=species:S:1:pos:R:3:forces:R:3 Energy=-13472.423894290996
C		1.66874325		-0.12333467		0.17260785		-0.7322464668234736		-0.10134620021030862		-0.8867843169133511
C		0.13782625		-0.22696072		-0.01837601		2.251544777513628		-4.404476900234443		0.22767077009723607
C		-0.62635159		0.91841128		-0.05201078		-0.844576213883712		2.9016537041309345		-0.6113488271407683
O		-0.0415523		2.13489563		-0.08134307		1.2102935729565731		-0.8993459040155828		0.7058197433360385
C		-2.03539844		0.87933873		-0.17786663		-0.8906587636303067		-1.780334388848734		0.14615584822314803
C		-2.59505505		-0.43985094		-0.17773533		1.6718488523327335		2.634047017677301		0.10035426862575111
C		-1.86724477		-1.63816276		-0.08341049		0.4282353255738932		1.582538500058222		-0.8047944094484618
C		-0.4848452		-1.57193951		-0.14479529		2.321751473635511		-0.1826432468058187		1.282059128901466
O		2.28738574		0.94603296		0.02975001		-0.6003215201156982		0.04825600605994303		0.5241773241315804
O		2.38603579		-1.25377738		0.43059341		-2.8355283771052844		-0.30853360879746344		-0.2556677691055439
H		0.95247091		1.86082553		0.06492852		-0.6012491227001374		1.0606377848972541		-0.5145405210970762
H		-2.68736744		1.80732977		-0.26716		0.9016689471085828		-0.9297376284719383		0.06497876929932139
H		-3.62321108		-0.47646637		-0.37064399		-2.2226429558945444		-0.3198352011036134		-0.045297951917813904
H		-2.52877557		-2.45613392		-0.16553434		-0.2758458378308912		-2.0137633500764607		-0.027883819048867095
H		0.22833697		-2.5387578		-0.13188522		-1.536675419674141		2.1032088395310766		-0.053755955592836614
H		3.26945465		-0.95779073		0.5933935		1.7544017799593294		0.6096745762096326		0.14885771765017786
16
Lattice="50.0 0.0 0.0 0.0 50.0 0.0 0.0 0.0 50.0" Properties=species:S:1:pos:R:3:forces:R:3 Energy=-13471.894605500542
C		1.67652877		-0.16612775		-0.06997295		1.5117216297433709		1.6386722118184995		-1.0331606629402619
C		0.16141774		-0.23648661		-0.24664318		4.013107696733126		1.4348631813118966		0.31630111701797925
C		-0.60341013		0.86783804		0.02824512		0.017173631882893146		5.394688982445863		0.15876289242858066
O		-0.0970418		2.19322362		-0.01929483		0.9077938803884287		-2.3190102149086487		0.536450639151747
C		-1.94821103		0.87965362		0.38164574		0.6765574530592174		-0.5705003748642284		-0.1697244306357841
C		-2.57323723		-0.32285563		0.16145387		-2.0496552297539594		-0.6984387233368567		0.19852438514916526
C		-1.83543704		-1.47159328		-0.13640859		0.9151839506706007		-0.8083285449561584		-0.5770888266149506
C		-0.42072602		-1.43916515		-0.28672904		-4.228063590559983		-1.610895864880142		0.7302475369900623
O		2.47317268		0.81146759		-0.26689132		-2.569792322439263		-2.3774806480305366		0.997536846474287
O		2.06172723		-1.40175876		0.32055052		0.028490599385714094		-0.26145218548788135		0.2649822072305824
H		0.8862373		2.02950778		0.034768		-0.10537635293234647		0.6060912812102389		-0.4058143807508972
H		-2.33273315		1.76586227		0.89143785		-0.4341150270379407		0.242216837433332		-0.43895080921229895
H		-3.68792385		-0.34544075		0.23887224		0.454125871216218		-0.3557459012559672		0.23035757285996966
H		-2.25334859		-2.48130811		-0.20774205		-0.6269314089895612		0.0504444261934629		0.0014520561993123314
H		0.03503639		-2.38978575		-0.19344183		1.173640081112206		-1.06781759036609		-0.432845416316182
H		2.95399705		-1.5195359		0.69788514		0.31613913752127853		0.7026931790952782		-0.3770307784533734
16
Lattice="50.0 0.0 0.0 0.0 50.0 0.0 0.0 0.0 50.0" Properties=species:S:1:pos:R:3:forces:R:3 Energy=-13472.472085300296
C		1.65578664		-0.07167361		0.31177851		0.35250847104857624		-0.4199094765993533		-0.9838169774154895
C		0.16298237		-0.22698373		0.23036489		-0.2506606486191199		1.8768918066497582		-0.8651750693460442
C		-0.64754162		0.96777185		-0.17392509		1.3919435512042106		-1.4575873106150665		0.8132206857109561
O		-0.04008132		2.17704614		-0.29934604		-2.6048525531008444		-0.2805034425588788		-0.29979329799961957
C		-2.04335631		0.78587282		-0.4097069		0.9292851657444878		-0.724094218731747		0.5786238780230487
C		-2.54817821		-0.58550932		-0.42138084		-1.9758375221410254		2.2866372498083627		-0.7153986965502924
C		-1.79309319		-1.66876879		-0.0040338		-0.4118566787763946		0.10897255486941383		0.2769226158184825
C		-0.46606049		-1.47079497		0.31268533		1.9734631084076433		-1.3020879193795363		0.37264072271628534
O		2.28259328		0.98921137		0.41299932		-0.5578562039297108		-0.34278836427291176		-0.00026374375827866527
O		2.28060466		-1.26538268		0.04018682		-0.24931447044638116		-0.0552656559241494		0.26207634648183464
H		0.89598763		2.08418322		-0.12382979		1.6286146220470108		-0.37986351702932486		0.5801630431961422
H		-2.5650512		1.7778594		-0.34060711		-0.4257044345044919		-0.9361833325773141		-0.8703731713723877
H		-3.61825496		-0.80869694		-0.81818971		1.3351741084859297		0.6214191181616809		0.9316796340822235
H		-2.29929922		-2.60536219		0.23647413		0.03204165275195503		-0.47449975515535464		-0.4706369298245117
H		0.20388503		-2.35989032		0.5460093		-0.7400576837970675		0.8380756938597703		0.032078728058977636
H		3.25584435		-1.21395424		-0.10366202		-0.42689053579684055		0.6407865694946507		0.3580521807566102
16
Lattice="50.0 0.0 0.0 0.0 50.0 0.0 0.0 0.0 50.0" Properties=species:S:1:pos:R:3:forces:R:3 Energy=-13472.578691057106
C		1.60407111		-0.18637615		0.00337974		0.8211687367927153		-0.8799101641836865		0.43921804967082395
C		0.17619675		-0.30850966		0.16953899		-1.6117060194739574		-1.3297024410873808		0.31084950422378366
C		-0.54407672		0.94255068		0.09258755		2.0587305038665678		1.2795780658105735		-1.1185105908094104
O		0.08441181		2.16511213		-0.0394924		-0.30904494978641317		-1.1872588543962375		1.1184878108357472
C		-1.91287068		0.97581124		-0.13033324		-0.4718230825389227		-1.0452459274780685		0.20997278744359477
C		-2.5315984		-0.28905821		-0.13329569		-1.9418948985846163		1.1532056734055722		0.36925452848224205
C		-1.90522088		-1.56729264		0.04634158		-2.673842243270849		-0.011739039791366722		-0.5745161294087818
C		-0.56322551		-1.61393212		0.21554016		3.0514027718115275		1.2765230810807362		-0.1747044516952997
O		2.1894294		0.89507389		0.04764812		1.0193293622721469		0.25258794751954583		-0.018355208033746562
O		2.25961589		-1.36693467		-0.18596455		0.4562226572344615		-0.07142663313131985		-0.36325784182613297
H		1.03612177		2.01806938		0.28540606		-0.39613510309281386		-0.13455929896681545		-0.7246913317208543
H		-2.36389608		1.99708446		-0.29241639		-0.06077131330597435		-1.0697733770891102		0.19467996891667752
H		-3.65253582		-0.16236203		-0.14438819		0.5973039706473205		-0.8057540993998665		-0.3633210395408775
H		-2.56679859		-2.4970738		-0.0652705		0.8665254641279033		1.0294301465760891		0.4181495050901224
H		-0.00321386		-2.59853438		0.31413925		-0.3733205738038663		1.1324461754201631		-0.13384736051226914
H		3.22668785		-1.24797187		-0.41754078		-1.0321453343172922		0.41159874571117216		0.41059179888438085
16
Lattice="50.0 0.0 0.0 0.0 50.0 0.0 0.0 0.0 50.0" Properties=species:S:1:pos:R:3:forces:R:3 Energy=-13472.339641332197
C		1.64416325		-0.1650952		0.05731219		0.7225203436665032		-0.9401167089778312		0.2520808231397166
C		0.24759318		-0.32229637		-0.28725309		-3.806299423012376		-1.4017079837977027		0.710215866876495
C		-0.58138594		0.87610253		-0.27740911		2.43871069755558		1.280253597444909		0.4673208238615804
O		0.01953315		2.10086755		-0.31049337		-1.1632890770524085		-0.579078963275684		-0.20299584201110318
C		-1.95973154		0.88408429		-0.00966127		0.6383483924038371		-2.4370376807539427		-0.6237080170052176
C		-2.60397578		-0.34667657		0.11770124		-2.2166829845910208		1.5289106882449974		1.0808331828576454
C		-1.93565857		-1.55548663		0.09746397		0.5030735040160417		1.849373855575185		-0.7971109248779806
C		-0.60023403		-1.55433397		-0.1045023		3.2758852197710078		2.2302924504817496		-0.51741516865392
O		2.15014352		0.93819562		0.28540729		0.3813350107682413		0.8305224099513988		-0.24576254290507862
O		2.45671502		-1.25264094		0.25874648		-4.019765465424023		-1.2637183704672663		-1.4780040291322194
H		0.99435008		1.93854843		-0.17057844		0.3262389448060344		-0.15124123308861276		0.08477019553714732
H		-2.36997228		1.83104768		0.17613164		-1.1121090068336121		1.6465411757682187		0.1405061576444156
H		-3.69419388		-0.40720983		0.43520399		0.8553759782824645		0.40101012030081734		-0.4947288859887095
H		-2.51203397		-2.4023196		0.20661619		-1.1865534465436218		-2.6000895845669074		0.36278043939839677
H		-0.08842208		-2.47155302		-0.07774651		1.1116253309142576		-1.7186390725026914		0.055935633975740896
H		3.21207303		-0.82698394		0.56395951		3.2515860326951573		1.324725299663362		1.205282235861029
16
Lattice="50.0 0.0 0.0 0.0 50.0 0.0 0.0 0.0 50.0" Properties=species:S:1:pos:R:3:forces:R:3 Energy=-13472.290361061769
C		1.68382318		-0.16889745		0.13875204		-0.4923724699771829		-0.0047283614859114495		-0.10643400191270824
C		0.2180254		-0.28516732		0.32797023		-0.8283461254246158		3.084383854222285		-0.9032256986270324
C		-0.63068782		0.97427964		0.0165431		1.9434570494196226		-2.5735980692807923		-0.05327752472385149
O		-0.1213327		2.194371		-0.09065167		1.2179574142992007		0.27629778633771734		0.06654806780100754
C		-1.96003776		0.83217167		-0.38248857		1.2796069650096673		1.367464541175992		0.7509336042703005
C		-2.57375329		-0.3809381		-0.25488646		-1.7630877890592314		-0.0712638823036825		-0.8744733609434749
C		-1.87185019		-1.51761248		0.01879191		0.8772293263801967		-2.8020123509789157		0.042600607632279235
C		-0.47508267		-1.48273686		0.33351308		-2.1563076211658703		-1.4526418451815137		-0.6042347904897993
O		2.31136073		0.88807907		-0.02098427		-0.4593380628876712		-0.0786768868257048		0.3800780498738441
O		2.28996933		-1.37884967		0.02147113		0.6607017172147185		0.25646321698950036		0.8286310036505595
H		0.88063961		2.11230156		-0.06387953		-0.24986864601334727		-0.11218627950601777		0.13136706875231338
H		-2.26704796		1.78373926		-0.81300332		-1.1774242821095715		0.14376245974872373		-0.007475585172017451
H		-3.62929234		-0.53334453		-0.4915264		-0.3658236998979967		0.2953646242936356		-0.31789777205688596
H		-2.39384901		-2.52547211		-0.28200291		0.9422965930489853		1.4664908350391097		1.1815993936256408
H		-0.10315255		-2.51133294		0.4648221		0.929646457155224		0.39034158500542365		0.03360138675002648
H		3.23735483		-1.19432265		0.25557757		-0.3583267745700647		-0.1854612272498485		-0.5483403970081391
16
Lattice="50.0 0.0 0.0 0.0 50.0 0.0 0.0 0.0 50.0" Properties=species:S:1:pos:R:3:forces:R:3 Energy=-13472.130350649313
C		1.60557778		-0.16264302		0.05088118		5.078181045892731		0.4531263291664187		-0.5025140833987063
C		0.21241579		-0.28044773		0.00636597		-1.7996585942271874		-2.140375266448329		0.6263523451443719
C		-0.54598187		0.87328915		0.03686914		1.3712370693651823		3.932798365113053		-0.6836635707125699
O		-0.00961382		2.18119091		0.01317513		-0.9752098497593773		-1.272569907186178		0.023230688040312183
C		-1.91391007		0.83201395		0.00738009		-1.5462621890418866		-0.4104445775196018		-1.4201574998939728
C		-2.59807069		-0.36211091		-0.30245589		-1.449882845843108		0.39668557627128387		2.9390839262285273
C		-1.95121014		-1.57860114		-0.05487015		2.6563830132531385		1.0486756761990026		-1.0064600655482465
C		-0.49951447		-1.50089748		0.05360329		-1.2876826970724764		-2.8938385790805947		0.1895193021517938
O		2.20321678		0.87506123		-0.31762285		-0.42342916250750307		-0.9691044054411979		0.5020829608271703
O		2.35497151		-1.26646529		0.46681209		-0.17273143858136053		0.6198749650485302		-0.10836536315606725
H		0.87027239		2.20680122		-0.44041764		0.013842819210102685		-0.7988285760298196		0.5137873935705117
H		-2.37383516		1.8067562		-0.07380839		-0.5832728438445456		0.5352678802934574		0.13530502171638792
H		-3.73013325		-0.38983297		-0.17509252		0.9269924102462679		0.29797372832001523		-0.8714242383287565
H		-2.55578562		-2.47701914		-0.13100458		0.25137212427510425		-0.7401798111953735		0.1765419162526348
H		0.04298483		-2.51855723		0.18841585		-0.4502093098301205		1.6650968784234375		-0.2576837196416244
H		3.3493582		-1.07132199		0.4648661		-1.609669448690837		0.2758416212217708		-0.25563506467382907
16
Lattice="50.0 0.0 0.0 0.0 50.0 0.0 0.0 0.0 50.0" Properties=species:S:1:pos:R:3:forces:R:3 Energy=-13472.43473685457
C		1.59881101		-0.12708195		0.19883901		0.10786132409998471		-0.7089565405672252		-1.4160309822269135
C		0.17074878		-0.31806857		-0.09645912		1.0710133687029006		1.61557136448586		0.08634448197889061
C		-0.54742142		0.91134675		-0.24445427		-0.6590285461468941		-0.027853994252649193		0.18400752554453795
O		-0.02803105		2.14343838		-0.59084211		0.13091887405604571		-1.6008103529287458		0.902877571264282
C		-1.94105068		0.81976128		0.05993931		2.311411062520577		1.145221729724227		-1.341313285677073
C		-2.56248646		-0.40446192		0.14695871		0.25628287981650694		1.2600892584102346		0.2752194142661904
C		-1.87814937		-1.57937333		0.04626876		1.7359582288223028		0.17633900479422812		-0.5290576378120158
C		-0.5019313		-1.54724109		-0.05697836		-0.31819915676487404		1.163710892230642		0.20663277022162665
O		2.20359618		0.93851347		0.32724735		-0.4060977677370297		0.97878471154053		0.12235946607388215
O		2.32418869		-1.24773437		0.19385087		0.46448751964294194		-0.5479031037891097		0.5970812616948727
H		0.96999591		2.07753989		-0.44737173		-0.5773982845867426		-0.14388633549715293		0.0643137277657246
H		-2.25927079		1.84897728		0.05882239		-1.6265750173622062		0.4946729387847697		0.3094154971683894
H		-3.56377903		-0.46497301		0.40969777		-2.662908730087678		0.08146216283801984		0.40043491311031143
H		-2.34310759		-2.51222043		0.04761719		-1.2486994772669917		-1.9232693133465357		0.15447789196506706
H		0.02708128		-2.45680033		-0.03932689		1.183228598830075		-1.4395932397258686		0.09106821547918205
H		3.19877061		-0.85781585		0.43328524		0.23774512346108184		-0.5235792341232864		-0.10783077939489258
16
Lattice="50.0 0.0 0.0 0.0 50.0 0.0 0.0 0.0 50.0" Properties=species:S:1:pos:R:3:forces:R:3 Energy=-13472.60809127595
C		1.63524951		-0.14215777		0.08788952		1.4386645058560557		1.04835274564685		-0.0805550262344336
C		0.21402128		-0.29858557		0.03243043		-1.4594160848438484		1.7902205888860943		-0.4815715742930565
C		-0.55882924		0.92198396		-0.06366906		-2.2726342508737454		-0.7103114090685173		-0.5154000408708387
O		-0.00532478		2.10354773		-0.21260682		0.5946731150885269		0.12002660136695523		0.2608760527002514
C		-2.02078588		0.84962899		-0.09833262		2.823493249078361		0.050403442809694506		0.8034703427625743
C		-2.59748624		-0.36766569		0.04731962		-2.4091298990239762		-1.5220723766928568		0.5269061387193311
C		-1.89607653		-1.56670934		-0.0105124		3.3368309052907317		1.4236240153895545		-0.3530250570878953
C		-0.47232517		-1.5133285		-0.08456237		-2.5346851948567317		0.4800400710072672		0.3952889530552869
O		2.29186384		0.94236722		-0.05790588		-1.366345339986884		-1.4203169597096135		0.15743193518632548
O		2.26728697		-1.28189194		0.3550865		3.11490577934075		0.37746611763402993		-0.3594117286655845
H		0.9731024		1.84207469		-0.20472535		0.6570737364430603		0.785182240520318		-0.058886129074690645
H		-2.57077868		1.75231537		-0.04738429		-0.731858178829954		1.3889016791002968		-0.12459848551684756
H		-3.69414847		-0.58219118		0.2343915		0.5938609036122134		1.0105049249801437		-0.45047377349727324
H		-2.46692869		-2.42331888		-0.18262252		-0.7772274017263161		-2.1461784518834586		-0.045847448077097556
H		0.07055064		-2.37301339		-0.33538804		1.1488077500929301		-1.8328295268924895		-0.034829551289454766
H		3.27370273		-0.99559067		0.25947663		-2.157013594661173		-0.8430137030942687		0.36062534076134106
16
Lattice="50.0 0.0 0.0 0.0 50.0 0.0 0.0 0.0 50.0" Properties=species:S:1:pos:R:3:forces:R:3 Energy=-13472.010127938274
C		1.55691934		-0.17741579		0.14195677		3.475674433390124		0.912017328643196		-0.02892552718987103
C		0.14899565		-0.34025761		-0.04197131		0.7239656635756353		3.9973633410758818		-0.39034837271766637
C		-0.62378588		0.90495978		-0.1644011		2.687210591110775		1.383219232667787		0.6869906809968644
O		0.02159829		2.09963006		-0.20747385		-0.40092913055246704		-1.1717656955140359		-0.024887866846716265
C		-1.99850654		0.94118994		-0.13702099		0.26664092869885986		-1.4520486916912145		-0.4204592812910117
C		-2.56737989		-0.2843258		-0.06867922		4.544042702622934		-3.310990239048978		1.237175638806956
C		-1.80103112		-1.5477197		0.12105267		-1.8843567988769123		0.36236001261584927		-2.5015688209996836
C		-0.43052375		-1.55496842		-0.06495865		-0.5892750326613362		-2.480466286435706		0.5539631938482129
O		2.17138856		0.90543109		0.3902618		-1.261445823839587		-0.8475906780283429		-0.3616899831421953
O		2.34862857		-1.28090282		0.00025002		-2.5997724647078115		-0.8362286647988203		-0.3104113368296927
H		0.98072256		1.82382361		-0.03388899		0.4017150139328088		0.5346413538846315		0.17808838335859545
H		-2.56427753		1.81347755		-0.26123018		-0.843352111687217		1.8272928105849482		-0.15050018974672277
H		-3.53229286		-0.50291239		-0.02167875		-5.2320726235018045		-0.3394456216816341		-0.011212580716058284
H		-2.37524439		-2.47097226		-0.15951901		0.18197234315710317		0.3475144117660132		0.8362170948347704
H		0.27152628		-2.4323408		-0.16621715		-0.9482078162373111		0.34060549772213594		0.2822183169193458
H		3.22624721		-1.07267715		0.28788893		1.4781901255762069		0.7335218368162262		0.42535070213693515
16
Lattice="50.0 0.0 0.0 0.0 50.0 0.0 0.0 0.0 50.0" Properties=species:S:1:pos:R:3:forces:R:3 Energy=-13472.207187464623
C		1.65970117		-0.15766139		0.05969532		0.367430947881767		-2.181316124171082		0.47334260448416243
C		0.24384028		-0.35855226		0.13221044		-1.9567107260602967		1.6328445494816464		0.18451490703467943
C		-0.51867697		0.87687451		0.048661		0.6882934589488998		2.0201100667116303		0.7531320517059971
O		-0.04900333		2.19327733		0.11421615		1.3340375266397155		-2.908992300928599		-0.26640952941785884
C		-1.8849806		0.84194913		-0.04242431		-2.778295467338189		1.1091447820439895		-0.8005700870186329
C		-2.65705139		-0.28859156		-0.20992416		2.041725742036743		-1.397316693931116		-0.7082603886858494
C		-1.93358451		-1.5456052		-0.20711635		-0.08847299540966247		0.7087951267132114		0.8699709479999455
C		-0.53299528		-1.54380042		0.11062623		-1.3705485279490481		-0.724921651138544		-0.6772681059622025
O		2.1604017		0.92533632		-0.24647745		0.8491831678801914		-0.2057815808219802		0.23837735771883894
O		2.39825231		-1.33397725		0.2794986		-1.6522157032031122		1.67787788346612		-0.2468357727703612
H		0.94779589		1.95859386		0.05969519		-0.3889691815808381		0.9619016657325118		-0.1288167915653704
H		-2.50480249		1.76261793		-0.2495213		1.1339227599432617		-0.1342284494170465		0.5771020935070614
H		-3.6415838		-0.00405625		-0.57958707		-0.7681321758534793		-1.0371065863240152		0.18364607986761444
H		-2.45204958		-2.5154345		-0.36549598		0.18938128533619233		0.2816158046136817		0.1541411803001794
H		-0.1096814		-2.55171064		0.27039329		0.4381557212827797		0.30272096170284385		-0.231737586749797
H		3.18329587		-1.0592127		-0.18197793		1.9612141674450754		-0.10534750515531502		-0.3743290632925309
16
Lattice="50.0 0.0 0.0 0.0 50.0 0.0 0.0 0.0 50.0" Properties=species:S:1:pos:R:3:forces:R:3 Energy=-13471.75654899663
C		1.70572174		-0.1330596		0.11498353		-0.3136487670370836		-0.30089630123905753		0.2840348012752035
C		0.23320874		-0.23966058		-0.19680318		1.4704940940224889		2.24537058189796		-0.005902070061210832
C		-0.53924079		0.93729066		-0.21346893		-2.9410046945270225		-0.1698940205977266		-0.3942200940653122
O		-0.2237381		2.1737363		-0.60596949		3.296937206447601		-0.5007654247432131		0.08681139430588813
C		-1.94948154		0.77115174		0.10868589		2.9117208584060372		-0.9997351396437963		-1.1955330241980207
C		-2.59231136		-0.42375437		0.16006022		-0.7152398023773384		-0.2863639635936344		1.4810738748381034
C		-1.82505778		-1.58522057		-0.00234102		-2.232536303598585		-0.9809706634150527		0.3357002957634773
C		-0.51440185		-1.39482836		-0.16324638		4.142298635224844		-3.942846853179489		-0.15065743841367854
O		2.31878867		0.93831652		0.30679779		-0.8637438905040842		-1.5142014072827024		-0.6634478096154506
O		2.27848539		-1.38373895		0.36914681		-2.7590014467103905		1.0642152177815294		-1.4086848778081318
H		0.7938335		2.05883936		-0.78441185		-1.6002540690572196		0.8869252133644496		0.5077122368471121
H		-2.39088571		1.59804646		0.50031523		-1.8385583046032619		3.227189195122725		0.7343390362325968
H		-3.57907971		-0.377973		0.65743463		-0.1634085672380811		-0.4768653242939963		-0.5136950395463611
H		-2.16465874		-2.61793588		0.22190238		-0.30045000915910025		0.3882994092174964		-0.45068588950485755
H		0.15853712		-2.32912482		-0.19498576		-0.8777022550885001		0.9367074262377502		0.1541414888325541
H		3.07154424		-1.12569523		0.77892211		2.784097367221758		0.42383200294469453		1.1990131151180878
16
Lattice="50.0 0.0 0.0 0.0 50.0 0.0 0.0 0.0 50.0" Properties=species:S:1:pos:R:3:forces:R:3 Energy=-13472.047183447441
C		1.62208002		-0.19330224		-0.0363038		-0.9206940817718584		2.046441350851168		-0.05443601236866725
C		0.1696619		-0.23495193		-0.12642078		0.7324699985289207		-1.7585465524585564		0.5146820346129238
C		-0.55344483		0.90988644		0.09330574		1.2833569189134444		3.713318152544065		-2.174123463186635
O		0.15525669		2.12979281		-0.04015952		-0.8802987092875182		-1.3984308043360416		0.057461789367035984
C		-1.98011131		0.84618258		0.08664013		2.6552722967043336		2.977147719557501		0.5750925193067241
C		-2.60642074		-0.32899517		0.03025475		-2.5734204574771087		-1.8135436823726196		-0.01396155275228741
C		-1.91084002		-1.50652186		-0.02808618		3.07570915797612		-1.0757793711385217		-0.5397156830066707
C		-0.51108354		-1.46202532		-0.11976536		-1.17864972127969		0.6979981905278934		0.6822387167842908
O		2.25497077		0.90694497		0.0059306		0.4793742067206712		-2.0172824189198604		-0.31018024608106637
O		2.16930538		-1.38845339		0.0948412		3.056530425612322		0.6336730470643062		0.8005476155773448
H		1.20646948		1.91480784		-0.30382308		-2.3571456905926707		-0.3023942773401329		1.2332343948308848
H		-2.35580342		1.84929675		0.12456326		-1.2193498723281395		0.7272761645337602		0.04521912189608624
H		-3.67923526		-0.5258641		0.04060336		-0.6299995063453219		0.8725058499902173		0.015040747576813505
H		-2.30447799		-2.50030884		-0.07324116		-1.0427125167276075		-0.7700607603054662		0.1749223269738777
H		0.0686363		-2.32424141		0.07893046		0.7684226076621667		-1.5579049153102946		-0.3937112727574222
H		3.12276894		-1.10918555		0.36741028		-1.248865004886001		-0.9744177443094798		-0.6123110367732328
16
Lattice="50.0 0.0 0.0 0.0 50.0 0.0 0.0 0.0 50.0" Properties=species:S:1:pos:R:3:forces:R:3 Energy=-13472.088411724893
C		1.66014981		-0.17240616		-0.023055		0.9174332545260548		1.8141775107143128		0.4913119413613243
C		0.20600379		-0.22373343		0.17832466		1.7812038845026104		-5.099864958294709		0.09195108086929443
C		-0.52088647		0.86834987		0.14946182		-2.5986870992357916		6.501139608372191		-1.0373288838999637
O		0.03124257		2.12359271		0.00779163		-1.0815156050483483		-0.2108605893517018		0.7652124311478715
C		-1.93048197		0.90616761		-0.01399675		-0.5551433301813178		-0.11987737454174083		-0.251118716351377
C		-2.60990652		-0.30597587		-0.14621036		0.5504592430911712		-0.24033571554498137		0.10746856238703238
C		-1.91501344		-1.54658859		-0.01521699		2.08887709935125		2.2379014244837485		0.5751290803931222
C		-0.49372392		-1.47208009		0.15045411		-2.311687713216529		0.9143754930048458		-0.3705270188394976
O		2.26467664		0.94781028		-0.06702613		-0.343745688809444		-3.504127494670253		-0.07989692667926682
O		2.20071304		-1.45151185		-0.11369001		-1.047862179171128		1.3569885300823912		0.2725410447216978
H		0.88993639		2.10390068		0.45906403		0.8791528200480015		-0.08429772962740578		-0.3398550441428186
H		-2.38906463		1.93085338		-0.12106046		0.24323077766061577		-0.916156804669991		0.07610588654759665
H		-3.66285334		-0.39395567		-0.41455544		-0.5013436144133409		0.39410089772456536		0.1590755899903066
H		-2.5440261		-2.40440061		0.05593322		-0.14705131201855934		-1.4246592443506905		-0.22149914558469036
H		0.13498264		-2.30931837		0.12076764		0.8813534786323831		-1.9001238316636941		0.16994168884961278
H		2.96365147		-1.4514398		-0.68843603		1.2453260357044345		0.28162022691105204		-0.4085115707702445
16
Lattice="50.0 0.0 0.0 0.0 50.0 0.0 0.0 0.0 50.0" Properties=species:S:1:pos:R:3:forces:R:3 Energy=-13472.228584854087
C		1.57236409		-0.12382807		0.19991672		1.6120090496879438		-2.8467329359796008		-0.35676333818349726
C		0.17923656		-0.22452609		-0.10898036		0.16312821415363277		1.5477730720806357		0.5503309964674342