16
Lattice="50.0 0.0 0.0 0.0 50.0 0.0 0.0 0.0 50.0" Properties=species:S:1:pos:R:3:forces:R:3 Energy=-13472.585299505314
C		1.62136087		-0.14262458		0.12499032		0.3291564783629571		0.37239363970623884		-0.4423087727340602
C		0.14516807		-0.24861158		0.21510341		1.4490657492708623		-2.1099959347090222		0.10718368416108896
C		-0.55478357		0.92540112		-0.00735609		-2.667717772789565		2.6338238973483534		0.027942748732428673
O		-0.06093447		2.16002116		0.09277815		2.256922291115841		0.3012217000502073		-0.6122333380368788
C		-1.97190407		0.92281863		-0.30274742		1.6542067654609693		-3.7471164857932546		1.0483231779609443
C		-2.47903581		-0.39869941		-0.2984856		-2.9054834136535623		1.882737980929092		-1.4205890338420084
C		-1.83626475		-1.59704429		-0.06381746		1.4914496129099373		1.9151485869790872		0.523771038416205
C		-0.5136202		-1.54692682		0.23678571		2.383899818351691		1.208031310741383		-0.28635151945452275
O		2.24418819		0.93159733		-0.11050968		-0.6985145194569002		-1.5233773143715148		0.5465684441583585
O		2.27098954		-1.3546803		0.16161524		-0.9884638863544887		0.9810061446381395		0.16719590498125522
H		0.97350603		2.09494598		-0.02493387		-1.2667739208397903		-0.25623109779962516		0.4157363191216569
H		-2.59439181		1.78636244		-0.45103646		-0.1650948509318288		0.7315793169853168		-0.21176978283778586
H		-3.52596224		-0.51693428		-0.66816523		0.11635532321871866		0.19594135210844507		0.36415407695248103
H		-2.26373718		-2.50771772		-0.2368169		-1.797339253522684		-2.8236378479179556		-0.3228803127974613
H		0.11947664		-2.44958847		0.30086409		-0.10502231203241498		0.16182548762365975		0.18699031369870295
H		3.18048016		-1.12801488		-0.06503968		0.9133538908902576		0.07664926348144939		-0.09173294848040417
16
Lattice="50.0 0.0 0.0 0.0 50.0 0.0 0.0 0.0 50.0" Properties=species:S:1:pos:R:3:forces:R:3 Energy=-13472.909710175798
C		1.61483481		-0.15588453		0.11158043		2.7144594505325754		-0.14580849219133435		1.053441421524311
C		0.15821909		-0.28384062		0.11850634		1.1352011124156358		-0.3063813897959046		-0.9584332476206194
C		-0.5669693		0.91019771		-0.06692049		-0.7871249660394772		1.9289461547742386		-0.14367889889725116
O		-0.00901121		2.13688366		-0.147604		0.7851475306281679		-0.8898763769502112		-0.23457166229937204
C		-1.95859131		0.87879338		-0.2053121		-1.0334155106817378		0.3566533978139905		-0.5329947680230911
C		-2.61739491		-0.34223091		-0.16613551		0.1800717837291485		1.0831141627035656		0.31336121486389307
C		-1.91894481		-1.5244203		-0.01973756		0.908606863195679		-1.6146986292420495		0.40781367053874557
C		-0.49576218		-1.52770894		0.0336941		-1.1631447353231261		-1.3617703190911825		0.7979085324885596
O		2.30618364		0.9011807		0.1865308		-1.7373012702492325		-0.8103673268879643		-0.7086202402788372
O		2.32682744		-1.33980205		0.13924307		0.3221219402205275		0.8843456770239756		-0.5092705310274351
H		0.97079196		1.91609179		-0.24004593		0.10512011679518471		0.6139894528914267		0.5221747433317353
H		-2.58495358		1.78727885		-0.4428152		0.915551978371517		-0.4327368129202989		0.4164516514323246
H		-3.69085615		-0.26069667		-0.17809121		-0.9364757184243746		-0.4950372126751276		-0.15662867114887744
H		-2.50001192		-2.4544834		0.1628724		0.3750580738718089		0.10047197372668694		-0.3939894661152478
H		0.03694925		-2.53644132		0.15691505		-0.3859495238079003		1.442975011662542		-0.1981188193426642
H		3.29278545		-1.04248624		0.02908161		-1.397927176656459		-0.3538192194202906		0.3251550191517634
16
Lattice="50.0 0.0 0.0 0.0 50.0 0.0 0.0 0.0 50.0" Properties=species:S:1:pos:R:3:forces:R:3 Energy=-13472.345237939391
C		1.61848412		-0.11445394		0.12988606		0.9708635541974296		-2.6941945299437595		-0.13086524084491594
C		0.22686015		-0.30151796		-0.08151277		-2.5264121049182604		-1.3024075589196922		0.7306079028036746
C		-0.58090152		0.85407036		-0.19491745		3.1705034161000416		1.2585930306592819		0.2472759970469499
O		0.02639711		2.05239012		-0.2197549		-1.5341754332642692		0.851128670190723		-0.30227796063488316
C		-1.94402364		0.81268366		-0.32335178		-1.4016074536656233		-0.4912551199823229		-0.2988624558252463
C		-2.64620303		-0.36223195		-0.1287191		0.886569424114395		0.1723280839235446		-0.4644045758562188
C		-1.83826097		-1.48819458		0.11777597		-4.17754177416254		-2.3549394270034822		1.5439254676802763
C		-0.51239901		-1.52517271		0.15876089		4.138747067637978		1.4258238512209371		-1.9112351623387989
O		2.11956123		0.96589982		0.30509426		2.026075128799336		2.4854786519724996		0.5385828549710149
O		2.37201694		-1.25266622		0.15426438		0.38657255351647973		-0.29811755582867294		0.41730011546266144
H		0.98138381		1.95349626		0.05090459		0.2156119879215885		-0.45840141002024165		-0.08564107958671009
H		-2.35486035		1.73348069		-0.6498713		-1.0190923579863396		1.3061746363702633		-0.18156729157122659
H		-3.72101337		-0.45492793		-0.3261433		-0.1266186526620485		0.05964717559887162		0.33604682904229183
H		-2.3437366		-2.42053285		0.50293218		0.053132308819507756		0.3474942543175349		-0.9108418717177736
H		0.0651233		-2.42445873		-0.06850524		0.04348424435332828		-0.6505085788866256		1.0153657496989124
H		3.29187546		-1.09706164		0.52575781		-1.1061119088010036		0.3431558263311413		-0.5434092783300083
16
Lattice="50.0 0.0 0.0 0.0 50.0 0.0 0.0 0.0 50.0" Properties=species:S:1:pos:R:3:forces:R:3 Energy=-13472.205781371344
C		1.61944682		-0.07051143		0.14203481		2.454745022222949		-2.876300056242594		-0.006758555933289102
C		0.19869503		-0.23908042		0.11772376		-1.84982199884939		-2.6126366192254675		0.2156706604948378
C		-0.55668061		0.9255228		-0.09347474		-0.5151724468224587		1.9176326839716642		-0.17999099966904794
O		0.02604791		2.1285248		-0.17961092		-0.12680660030028373		0.2205064426691962		0.41056505941190957
C		-1.95599029		0.86526204		-0.21269943		0.12407824851109492		-3.581404672956215		0.3161626374038158
C		-2.53823475		-0.46822858		-0.24382237		1.1495121295042974		4.385227719645097		0.2245355669499851
C		-1.94111236		-1.64768308		-0.02984816		3.8583241520288882		-1.3848646358218915		0.6504117511430423
C		-0.52917013		-1.50645814		0.21712914		-0.577741783963873		0.6258037231601498		-0.9377682633859834
O		2.20561707		1.00137056		0.03864234		0.7089440964281136		0.18751276185314067		0.33585682452155885
O		2.32140913		-1.32160341		0.20538353		-2.6798092079748654		1.1248280997131117		-0.05433445379533904
H		1.00627728		1.99573115		0.05624844		-0.329416776843052		-0.01061474781807666		-0.4443006577449166
H		-2.57010042		1.72958664		-0.07149795		-0.5496403981688024		0.9319249173200844		-0.4542708300102494
H		-3.53822233		-0.52564604		-0.34821087		-4.336801300870212		0.2224054594352775		-0.5618459903327296
H		-2.46738168		-2.64065563		-0.05145318		0.47644428044669945		0.7517967235884342		0.08611755641732231
H		-0.0253356		-2.44005092		0.31897246		1.2233150789853098		-0.8250970224090501		0.3904334762310122
H		3.2733945		-1.31131423		0.30078439		0.9698475056655854		0.9232792231171388		0.009516372564258704
16
Lattice="50.0 0.0 0.0 0.0 50.0 0.0 0.0 0.0 50.0" Properties=species:S:1:pos:R:3:forces:R:3 Energy=-13472.386705334537
C		1.6110754		-0.14654743		0.16073822		1.2339703988106552		1.0142740593132122		0.6731171113934197
C		0.12515336		-0.31193648		-0.08167806		3.2122871842703877		3.1655531169926197		0.6245345238148907
C		-0.59586005		0.9578713		-0.12189104		-0.947047888774747		0.026907622615417657		-0.4380721090092446
O		0.04835389		2.18154775		-0.23053016		-0.231962866805367		-2.3941488010395986		0.5882359984675793
C		-2.08211883		0.87801697		-0.0908714		3.5242535242684068		-0.5903564386345473		-0.02041425025815567
C		-2.63762067		-0.40256761		-0.03238079		-0.35614483361641286		-0.3405637430074309		-0.30328300484536397
C		-1.81736875		-1.58156716		-0.19941714		-2.9747162273348056		-0.9328783337798708		1.1952392499552744
C		-0.4529484		-1.56528921		-0.14171		-0.2374120113405653		-0.740567173591769		-0.7994248148438655
O		2.29502765		0.94652383		0.3197281		-2.5111469000388755		-2.3263296312770216		-1.003428632123009
O		2.3180162		-1.31889569		0.31082972		-4.081097433476832		-0.1849559540642673		-0.1752795046196184
H		1.0619041		1.94860678		-0.08874944		-0.8889260458141713		0.21598166112850312		-0.023234801805307754
H		-2.50933264		1.86351903		-0.10600836		-1.1083463002583491		0.5414048977579778		0.14798400538718062
H		-3.75038456		-0.54887825		0.13118777		0.9473659856530297		0.2109896587284379		-0.3538992321494545
H		-2.36411715		-2.5790708		-0.12124269		0.5457955705598152		0.9556233404403931		-0.3668182540077389
H		0.10010667		-2.51782854		-0.28352204		0.15324808191964054		0.5231036314677358		0.39499507596841565
H		3.16838941		-1.00520303		0.16299134		3.7198797619781914		0.8559621383722714		-0.14025136132500232
16
Lattice="50.0 0.0 0.0 0.0 50.0 0.0 0.0 0.0 50.0" Properties=species:S:1:pos:R:3:forces:R:3 Energy=-13472.663720921777
C		1.6447611		-0.11891815		0.09319095		1.2813951672311805		0.38339076198065397		1.214680697636102
C		0.22813093		-0.27422385		-0.11871432		-1.0230858467778543		-1.5030772210919865		0.541877775044219
C		-0.59064711		0.89470886		-0.12557255		-0.3653803902976613		0.49713286740799734		-1.2117590503141835
O		-0.10229077		2.17543028		-0.0737347		-0.3336018642392356		-1.2543598122126502		-0.23998224028773676
C		-2.01636686		0.77423372		-0.31436608		2.7276421647270763		-1.0626936903758544		1.0948993795070077
C		-2.64059986		-0.45432714		-0.1636243		2.6833467887607454		-0.0058433460658990286		-0.4457348190664982
C		-1.82529548		-1.6269337		-0.10822884		0.8478128727601664		0.1377093116680505		1.068803711257591
C		-0.38995734		-1.58694005		-0.03469898		-1.2818681987836087		0.8743533932717916		-0.6202621731787386
O		2.24352323		0.94826022		0.0247507		0.17498943276536802		1.592263183397444		-0.6864271980365958
O		2.31042579		-1.15978821		0.60253677		-0.9163079855335784		-2.0047892231606808		-0.1472604455465218
H		0.88743916		2.09123241		-0.15701684		0.18975656354791345		-0.14847647447921314		0.19578744587554817
H		-2.38325313		1.7464668		-0.39840772		-1.824771895395661		1.8374117468769333		-0.15265132888497024
H		-3.68317348		-0.48586193		-0.02771644		-1.9029555932204592		-0.34695200866905596		-0.12468595444506594
H		-2.36894769		-2.53614822		0.15106354		0.07221087100566337		-0.6160973974972205		-0.26974928952951466
H		0.24795134		-2.5211269		0.06371509		-0.6755698923499677		0.9799718412741274		-0.0787403416507615
H		3.24105493		-0.96337009		0.78148495		0.34638785722197557		0.640056221941749		-0.13879616837988085
16
Lattice="50.0 0.0 0.0 0.0 50.0 0.0 0.0 0.0 50.0" Properties=species:S:1:pos:R:3:forces:R:3 Energy=-13472.467439362543
C		1.63611088		-0.18534064		0.0474559		0.8358284468868138		-1.1256764608993235		0.8557804128035919
C		0.16271951		-0.29748708		0.10850019		1.2928944773674302		0.9507330508798438		-1.0172044998078087
C		-0.56095016		0.92748394		-0.09586004		1.28750734783954		-0.26515256852346164		0.5698479317359306
O		-0.0153989		2.13576304		-0.08200246		-0.1441554785719883		0.42705133258610495		-0.1256351542957319
C		-1.91403253		0.81228945		-0.25637303		-1.346194576376695		1.5073966229152753		0.18131686612712108
C		-2.6060315		-0.35346693		-0.06637247		-3.166839696994985		-1.047811065641058		-0.699127059064741
C		-1.96125413		-1.55763951		0.06975735		2.5462913600387416		-2.7429986951893617		0.7754785373825733
C		-0.55004345		-1.4687364		0.07894774		0.3333214597327248		-2.5262954796806354		0.37597919727638013
O		2.129552		0.92947675		-0.1111562		1.1862566898212539		0.1991742057522784		0.06890916322021659
O		2.48774584		-1.30183809		0.26631744		-5.142827165870099		0.008841612260859865		-0.8748295101479667
H		0.97234073		1.97590441		-0.01865028		0.15273859212493887		-0.048031445913247185		-0.17439957028706535
H		-2.41181604		1.76824418		-0.40044938		-0.5145620669412404		0.2921306393644284		-0.136194674818743
H		-3.73582142		-0.4274036		-0.16968008		0.9157382290816917		0.5986908236714531		0.22091195705363478
H		-2.27218177		-2.65677698		0.27102071		-0.596229918029039		1.91793149757653		-0.5771462136366389
H		0.10036772		-2.39047189		0.07679109		-0.695752126262373		0.4132899659229146		0.19634696933700851
H		3.32836078		-0.96710772		0.43794389		3.0559843747312216		1.4407259649173996		0.3599655957001761
16
Lattice="50.0 0.0 0.0 0.0 50.0 0.0 0.0 0.0 50.0" Properties=species:S:1:pos:R:3:forces:R:3 Energy=-13472.53907838826
C		1.60318426		-0.20542974		0.08757632		0.8983794777739978		1.0476856472307554		0.4663212303897186
C		0.17416223		-0.17606906		0.17773121		-0.29606962076975185		-2.740070414421389		-0.26046873854362723
C		-0.58053282		0.97475577		-0.00605187		1.5726160988889002		1.9018844202376746		-0.19216327033651096
O		-0.01993682		2.2427764		-0.05551993		-1.7770463079098346		-1.1610492348564438		-0.005592149290856861
C		-1.92320711		0.78441333		-0.24735005		-2.0410073244023286		1.78872158434377		-0.29295714617410146
C		-2.61039679		-0.4401893		-0.26793486		1.4931357423374976		0.37624828892915296		-0.29005185106804054
C		-1.85762915		-1.61063981		-0.04990684		-0.1795659963229428		-1.5008641183684932		2.013861823326042
C		-0.47328027		-1.43313924		0.22851327		-0.48749323616005874		-1.260368274521059		-0.38739273541247204
O		2.24278084		0.83673903		0.10372101		0.8848323354229519		1.911499420317702		0.0689673215728415
O		2.28743128		-1.3415246		0.01089629		2.0197164308236166		-0.6543804545004588		0.8076889059214094
H		0.94150768		2.15103607		0.09201202		0.7117868108841794		-0.500090972972189		0.0496138056187943
H		-2.43676467		1.76511849		-0.418015		-0.17721220283660094		-0.6463528020660354		-0.05684415897501316
H		-3.64364933		-0.44076332		-0.57919089		-0.8122576533254924		-0.12863753425568833		0.10875179995533889
H		-2.39270323		-2.63119247		0.24797356		1.0972689595665202		1.81194275930253		-1.116405834371488
H		0.20601821		-2.3148292		0.40318573		-0.6784417116933771		0.5224604957327402		-0.08104672399552942
H		3.2623909		-1.02142163		0.2390184		-2.2286417508552137		-0.7686288101325698		-0.8322822271944424
16
Lattice="50.0 0.0 0.0 0.0 50.0 0.0 0.0 0.0 50.0" Properties=species:S:1:pos:R:3:forces:R:3 Energy=-13472.165711165317
C		1.69871679		-0.10802694		0.17009181		-0.6054893859693241		0.46767615031307297		0.8270929697628395
C		0.15924597		-0.31683528		0.11050479		1.9406964559972808		1.6417956393134512		-0.6519233540906656
C		-0.57474115		0.89913124		-0.12795116		-0.11706803300420165		0.43372740753123284		0.4299815673924516
O		-0.11671291		2.19554192		-0.19016674		1.1914490839986658		-0.7886876310951081		-0.41384316447069436
C		-1.98668431		0.83901096		-0.246663		1.6212540166066196		-2.6925709297441314		0.195552549894301
C		-2.59976087		-0.47755835		-0.15089528		2.0022419284533597		3.36033958100062		-0.7792853126653515
C		-1.87282272		-1.66043829		-0.13753408		-0.3473517637825007		0.9670744681041324		0.04566232865229679
C		-0.51762787		-1.55299426		0.03317562		2.051426616961053		-0.632722561662079		0.5717049880990571
O		2.24942559		1.01514031		0.1595417		-0.6370006201471625		-1.4698412395176916		-0.4249264186997043
O		2.38366171		-1.26402523		0.35129944		0.7474368011799388		-0.11160598153132978		-0.37528057713600693
H		0.89641792		2.25656336		-0.30010057		-1.1672971697096575		-0.8194969026985143		0.5153316495277873
H		-2.21236219		1.83297115		-0.61375215		-1.8984797654832135		0.3938900158464799		0.2281488924338466
H		-3.6284464		-0.46138745		-0.13911887		-3.0872368530908387		-0.33928940145592723		-0.3408613224827981
H		-2.37639523		-2.57650229		-0.38915773		-0.32657478229586046		-0.9537912237775524		0.4185292055992138
H		0.08291042		-2.46251515		0.22504847		0.045041870046839495		0.10440740700970172		-0.3853907202553142
H		3.38737628		-1.15923697		0.28932678		-1.4130484511830608		0.43909535662983096		0.13950666701667871
16
Lattice="50.0 0.0 0.0 0.0 50.0 0.0 0.0 0.0 50.0" Properties=species:S:1:pos:R:3:forces:R:3 Energy=-13472.394546125408
C		1.59166522		-0.28414712		0.00148997		1.743836911541824		2.495635434902444		-0.42581802584043216
C		0.1207798		-0.33145202		-0.08405952		2.0479609756405326		0.8018150665724805		0.8815541275200423
C		-0.51829443		0.99112056		-0.0060005		-1.178394822116152		-0.6992597279858481		0.4339470825819964
O		0.08184156		2.18422481		-0.06103878		0.5681366569198347		-1.4772044160612052		-0.006988155442104512
C		-1.96358847		0.89391417		0.15281469		2.1508010381869216		0.7586935020255745		-1.0913018920183792
C		-2.64264278		-0.28386208		0.0064303		-0.47497895735527645		-1.2523372282305143		0.05232467390675192
C		-1.94457128		-1.55178027		0.02697596		-1.3667112079611778		-0.569750024129036		-0.9379514287724113
C		-0.56024639		-1.56398973		0.00902678		0.3159085609932767		0.3869630526586845		-0.24046344794809393
O		2.11521958		0.91056466		0.12108466		0.18420488342020055		-2.8942627082516377		-0.4334184123580028
O		2.50324945		-1.35453872		-0.11423442		-2.94105344264222		1.337605189332126		0.31332959029548957
H		1.16304137		1.90199028		-0.06696633		-1.4654303578453132		-0.13370147612111363		0.27462692926270305
H		-2.5010988		1.8168629		0.09281753		-0.5582729797458248		1.0626022619488276		0.17756557524972064
H		-3.74990416		-0.13860918		-0.17427238		0.7715255177542025		-0.781510910950019		0.4253353269402642
H		-2.50026292		-2.51242006		-0.17541776		0.26056273807377606		0.7113817592983028		0.5229681343331941
H		0.1347863		-2.43614454		0.00656513		-0.8121874107881931		-0.01743418747330024		-0.017146069657422804
H		3.34321108		-0.87482823		-0.09327124		0.7540918445015267		0.2707643610421723		0.07143588910255988
16
Lattice="50.0 0.0 0.0 0.0 50.0 0.0 0.0 0.0 50.0" Properties=species:S:1:pos:R:3:forces:R:3 Energy=-13471.805488930637
C		1.58629858		-0.23844582		0.02967517		1.5460315610918225		3.221439797164913		1.4640944126630013
C		0.11355439		-0.32530842		0.08159684		2.693394145541808		-1.9013369295388263		-0.6472935686984604
C		-0.50586283		0.89319432		-0.08685025		-2.878586075450634		2.426284710432015		-0.38424930473523
O		0.05754043		2.09928574		-0.21389937		2.4145419168300895		-1.1756825654325083		1.2815785897279206
C		-1.95253341		0.94513854		-0.09840055		1.348911563890083		-0.34993402549228425		1.8461414133078515
C		-2.5686704		-0.24422172		0.19609201		-3.1114685229986985		-1.7271657246310776		-1.9842014234417744
C		-1.94650126		-1.54047801		0.01079536		0.5330967379729189		2.8356153832349404		1.435495929790278
C		-0.59022787		-1.58764295		0.1028901		1.8486743098376879		1.0790510484395008		-1.3897340994471512
O		2.25638437		0.82469755		0.42952276		-2.5081992845754226		-2.02886163894115		-1.0161530728970027
O		2.35397428		-1.20296989		-0.43705878		-0.07889975004433997		-0.9964663419783142		0.280994368989038
H		1.04087463		1.86695432		0.16627803		-0.9238956708017255		0.6890701892021265		-0.796645143836357
H		-2.38703357		1.90675932		0.22860669		-0.2001054078810888		0.023947922967290307		-0.7937006651187131
H		-3.72524587		-0.26003386		0.2080902		1.4026283358713372		0.11699974450527513		0.504372322469269
H		-2.34692692		-2.44897593		0.28461413		-2.231639862783987		-2.3975808637533427		0.11844943528971502
H		-0.03571073		-2.54500178		-0.0439899		-0.06712029251189174		0.4727995360826844		0.5310996079116932
H		3.22727229		-0.84395696		-0.13799057		0.21263634743410328		-0.2881802936833047		-0.450248699129953
16
Lattice="50.0 0.0 0.0 0.0 50.0 0.0 0.0 0.0 50.0" Properties=species:S:1:pos:R:3:forces:R:3 Energy=-13472.665382207575
C		1.70156112		-0.10750073		0.03364328		-0.8989765393410427		-0.32253563071289476		0.21451782927689098
C		0.20011326		-0.23747796		-0.20235227		0.3736898356342813		-0.24560354588799976		0.7315825051531882
C		-0.60966701		0.94159246		-0.12373311		2.046985447693895		0.19218101094805434		-1.4110566690163293
O		-0.04945006		2.15131874		-0.31094589		-0.4593917989429259		0.7500463680048803		0.37857966239626906
C		-1.98047888		0.84896929		-0.04774099		-1.5234660174292318		-1.776065329224578		0.5676738583578329
C		-2.6030839		-0.45382047		0.09625902		-2.055433218378491		2.9792195144533964		0.22997591831250533
C		-1.8553681		-1.59417405		0.08899941		0.8067088014112141		-2.5545232094831323		-0.6836396594535332
C		-0.47754926		-1.4829016		-0.11252195		1.1496862960297973		-0.40233285001308144		0.662835629962047
O		2.37063054		0.93710705		0.05853471		-0.7759827307048431		-0.9212627069383712		-0.03801962177733418
O		2.18657198		-1.34018152		0.38714773		-1.1440857135206997		0.31996673873934683		-0.9521862897865921
H		0.93604567		2.13212457		-0.2547674		0.07888689452872878		-0.5876022729700113		0.026691907063462302
H		-2.52524527		1.79372241		-0.04867905		-0.42062218638483634		0.09754898943114511		0.028101025840633342
H		-3.73796281		-0.47314133		0.26011639		1.2764900681166467		-0.04424976459694195		-0.2886192324083323
H		-2.21751859		-2.68496433		0.12802652		-0.1285703770421356		1.5943675798809294		0.16467082460491014
H		0.09478507		-2.43472025		-0.02357113		0.059638948068880475		0.5534305641254111		-0.3088390558483847
H		2.91164621		-1.23788875		0.98755013		1.6144422388387007		0.36741454424384723		0.6777314187448291
16
Lattice="50.0 0.0 0.0 0.0 50.0 0.0 0.0 0.0 50.0" Properties=species:S:1:pos:R:3:forces:R:3 Energy=-13472.454419056729
C		1.67853201		-0.16671517		0.15999603		1.391662323944701		0.27291354614204694		-1.5133359739717587
C		0.2584047		-0.21929103		-0.01219631		-2.5928380453209616		0.113080457749868		0.4852370931702993
C		-0.59469407		0.97951923		-0.16199457		0.9281388651284712		-2.143130923352676		0.44912630977297335
O		-0.22289638		2.22215365		-0.21932758		1.556577711878598		2.3578323808145565		-0.06316177072283931
C		-1.96051906		0.83991005		-0.14779397		-2.1902761614417514		-1.484495858827608		0.5145955941259543
C		-2.59106599		-0.41202073		-0.0161884		-1.5264212947799891		1.227331759126987		0.04552045518201196
C		-1.86206242		-1.57260114		0.01596726		3.2582045149303474		0.5006607808461382		0.2196643549746024
C		-0.41260793		-1.46814377		0.07791798		-0.7261605628890231		-1.5367702933793517		-0.34774113163933174
O		2.34809432		0.86147415		-0.03360025		-0.23322682110025683		-0.41891132294524003		0.6755637731245367
O		2.27941579		-1.40760717		0.29298243		-3.98788748909683		0.31496208651192026		0.7324898474450242
H		0.73915687		2.34105593		-0.07388488		0.33858327369443714		-0.42240149258954657		-0.14210548663056946
H		-2.6398968		1.68303083		-0.05374658		0.2118352945453404		0.7527048372112068		-0.2751388358943396
H		-3.72732712		-0.42276822		0.13451563		1.2561555220552802		-0.0896243353877984		-0.39932851601475206
H		-2.35887064		-2.50118536		0.05338808		-0.5759763617160228		-1.6813232644940372		0.16269524038784874
H		0.25301029		-2.42633774		0.16207866		-1.223365061230006		1.585877488838941		-0.08619180987549242
H		3.15910259		-1.2183411		0.14675917		4.114994239975603		0.6512941023125302		-0.45788914343416803
16
Lattice="50.0 0.0 0.0 0.0 50.0 0.0 0.0 0.0 50.0" Properties=species:S:1:pos:R:3:forces:R:3 Energy=-13472.810377515607
C		1.60059298		-0.20568705		-0.05559909		-0.23602808937399214		-1.225870858332934		1.0483032776227783
C		0.15875114		-0.31326401		-0.19554784		0.4930462532613952		1.0020282036743908		-0.060047753465315525
C		-0.51454806		0.96651398		-0.03027832		-0.24620050461091986		-2.237090601403121		-1.3305696227484471
O		0.01622982		2.14622144		-0.13343111		2.821552940396137		0.9231255225724915		0.5403135159046524
C		-1.88354082		0.91606133		0.1180806		-0.8702110376094994		0.9487852859985647		0.9857777520785668
C		-2.54205336		-0.27881447		0.19645228		-0.5632288838580538		-1.357935313096122		-0.2675882259332154
C		-1.91530985		-1.53118138		-0.05536685		-0.5408665087641823		1.170264068446527		0.26038672035402793
C		-0.55004605		-1.53414969		-0.24672799		0.3417151858296917		-0.5072405422683072		0.4991115369488054
O		2.18610699		0.82175406		0.24553429		0.6784535387677393		2.7989198281434935		-0.3242624349918489
O		2.29779381		-1.32453408		0.03792854		1.1260168235306447		-1.673420310561042		-0.5437109715703712
H		1.04860391		1.94953814		-0.02049271		-0.9766945075462795		0.28550151276231256		-0.15063362999876664
H		-2.31413267		1.8934702		0.38856352		-0.47587565528018644		-0.13358968455735895		-0.2244523660529497
H		-3.58404503		-0.30527803		0.49212463		-0.7102798359221763		0.13113078437538014		0.004358996811371451
H		-2.51380942		-2.4337129		0.01387365		-0.11438390418871525		-0.5011956731396876		-0.04457212950640752
H		-0.05262092		-2.52500253		-0.23581263		0.31187614570049127		0.4560953876299109		-0.3241520832458427
H		3.25709401		-1.0690164		0.18599126		-1.038891857487969		-0.0795075074003734		-0.06826258220703743
16
Lattice="50.0 0.0 0.0 0.0 50.0 0.0 0.0 0.0 50.0" Properties=species:S:1:pos:R:3:forces:R:3 Energy=-13472.55608576034
C		1.69049036		-0.14599249		0.07448418		-1.8112225933179926		0.8431216894254023		0.5873074702860162
C		0.18855814		-0.3045256		0.12226766		0.11599398038592003		-0.6806369195391396		-0.9154053740714873
C		-0.52323281		0.89730974		-0.06948219		-2.1469706087554186		0.367517799745236		0.5694803154115138
O		0.0405348		2.1188195		-0.06357161		-3.7024479913418253		0.03766552945534025		-0.4405446874598338
C		-1.9559766		0.83081943		-0.15474914		-0.29874932728786807		1.2043577700223989		-0.0731461868994693
C		-2.70489376		-0.32706226		-0.22668079		-0.7024376628669907		-1.2683963383319818		0.44690868190798494
C		-1.99695483		-1.53941442		-0.06493187		1.8793240187813283		-0.9806745237574339		0.5712374587073102
C		-0.57707233		-1.56234609		0.13955518		0.29880424605055894		1.7557122712207314		-1.0393548103161585
O		2.31769924		0.93671368		0.10519891		-0.8248752904757886		-0.5010351334607354		-0.08979078860393179
O		2.34692755		-1.2747941		0.09147948		1.9598118878022093		-0.7306816934632826		0.5537190418957256
H		0.92860979		1.87597751		0.02097972		4.317314447508245		0.008599825723245072		0.38462741116038557
H		-2.5273134		1.76662364		-0.09171486		0.2652002881974102		0.3672166721475601		-0.32283938083575536
H		-3.86287795		-0.39175977		-0.31658314		1.7857969545422303		0.501726400246179		0.12066901719307635
H		-2.48153241		-2.5243223		0.01065362		-0.2894664108871081		0.07033519985593192		-0.28969590755179864
H		0.0556205		-2.47218956		0.07905121		-0.5446427907639307		-0.01159680636664479		0.429335757710209
H		3.24963982		-0.88974523		0.32461996		-0.30143309614891733		-0.9832317429228067		-0.4925081213779119
16
Lattice="50.0 0.0 0.0 0.0 50.0 0.0 0.0 0.0 50.0" Properties=species:S:1:pos:R:3:forces:R:3 Energy=-13472.752470776819
C		1.60957539		-0.13544891		0.20272272		2.492541060872774		-1.7224501158166525		-0.559031043790384
C		0.17245398		-0.28017742		0.09906237		0.5339586231615538		1.1105315322239973		0.43679159681024776
C		-0.55547082		0.95024653		-0.09049754		-0.7601802166949746		0.34174516489209694		-0.32977359453435545
O		-0.05105426		2.20962882		-0.08864702		1.7183578452431814		-1.2438351558479765		0.22738316650198312
C		-1.96854204		0.81076505		-0.29369985		-0.17265805929825198		3.0570739053902996		0.7179981332289325
C		-2.60054673		-0.38733623		-0.2575019		-0.32050487062283023		-2.4621810638289467		0.03325670466545993
C		-1.85356161		-1.61211599		-0.13676181		-0.6371775634640345		-0.421870045574181		0.31684228280314686
C		-0.49439268		-1.51055696		0.14919201		-0.2927763976246085		-2.5464992080151427		-0.5334841003693145
O		2.22739156		0.93135817		0.16937403		-0.19463487176791353		0.6929184106672351		0.22602336148269656
O		2.36714605		-1.33311609		0.17718481		-1.9617729709976615		0.7062519971929483		0.2153679388132261
H		1.00315777		2.11338346		0.04824127		-1.8042317639286412		-0.2958672235319697		-0.23365773798354308
H		-2.64775045		1.75145295		-0.28786492		1.2937379534577098		-1.111921521993939		-0.19276125750067988
H		-3.69872141		-0.39710836		-0.22929504		-0.11335916532831805		-0.1437924902331914		-0.35531935524798874
H		-2.28145796		-2.67796959		-0.20268513		0.10109551765589088		1.5764348040901657		0.21725152896057406
H		-0.01650655		-2.55023896		0.33202237		0.07180191134304097		1.8672738755121712		-0.2506849712546563
H		3.32246098		-1.14578733		0.14846135		0.04580296799308292		0.5961871862951474		0.06379734741465531
16
Lattice="50.0 0.0 0.0 0.0 50.0 0.0 0.0 0.0 50.0" Properties=species:S:1:pos:R:3:forces:R:3 Energy=-13472.620043308669
C		1.69147186		-0.10957181		0.28370233		-1.4860044792956095		-1.9206709051091444		-1.8075781060642897
C		0.20130967		-0.21925932		0.03926004		-0.022781413480733183		0.20437030231818648		0.6475131923271615
C		-0.64234851		0.95954273		-0.15555126		0.9740588697356783		-0.042847793486450715		0.13860138160734045
O		-0.05744642		2.18943236		-0.2678771		-1.396634528850725		-0.8625752212909042		0.18664547734794906
C		-2.0415905		0.80537678		-0.23834429		0.6362685756662003		0.19288312778867378		-1.003166019650104
C		-2.58384851		-0.49613157		-0.28637826		-1.267831878352527		1.4962525363863934		-0.7320469492211883
C		-1.84584885		-1.61321027		-0.07825747		3.916047576849642		-1.3707924227912232		1.360460136362155
C		-0.41689412		-1.46670191		0.13620583		-1.2009246274453433		-0.5134671883876688		0.7251384465538107
O		2.2363426		0.96485162		0.33606142		1.3490401190461947		1.2558459098173007		0.5881155165752715
O		2.30918525		-1.347602		0.16270839		-0.5915905167111568		0.6300680005324982		0.40146278871651775
H		0.83550474		1.9949637		0.06658901		1.2711710213994332		0.3840928788212734		0.0433891649598681
H		-2.60096315		1.72988316		-0.49061817		-0.11521061668663805		-0.39549978351131004		0.22830670674348919
H		-3.6130353		-0.65072304		-0.61594633		-0.6125892301310585		0.28061148031207506		0.34863716107742987
H		-2.19528496		-2.61701473		0.1601712		-0.7318447062495935		-0.2565970686180438		-0.4689726033514277
H		0.2171132		-2.27759039		0.59145665		-0.6055056353410567		0.20189540987478743		-0.8219752404200972
H		3.28886151		-1.36086705		0.19102075		-0.11566847873064531		0.7164307373435567		0.16546894643611373
16
Lattice="50.0 0.0 0.0 0.0 50.0 0.0 0.0 0.0 50.0" Properties=species:S:1:pos:R:3:forces:R:3 Energy=-13471.972411324243
C		1.66398403		-0.12257661		0.11051973		0.5254955801244116		0.8778039679280157		-1.7875301351569277
C		0.15948985		-0.19121288		0.05910192		0.9511028783529457		-3.782946350463445		-0.3621630146946237