16
Lattice="50.0 0.0 0.0 0.0 50.0 0.0 0.0 0.0 50.0" Properties=species:S:1:pos:R:3:forces:R:3 Energy=-13471.801214650939
C		1.64227654		-0.12826292		0.19631344		-0.12159661977751558		-0.5148568696252357		0.11680958571835479
C		0.16923086		-0.22578523		0.00191861		1.6271262618716127		-2.5892651890002445		0.5725917615659153
C		-0.55983171		0.92441053		-0.17444685		-2.646592818206362		1.3406631565415852		-0.13146775315058
O		-0.0456257		2.11425373		-0.49208752		-5.248990584890223		0.22561342480088767		-1.110587942226499
C		-2.03109692		0.8941947		-0.1329179		4.073901275792139		-2.4883133445868237		-1.5477714779967002
C		-2.55145508		-0.40683368		-0.23364961		0.6554305444376411		1.078158052903087		2.040777930581763
C		-1.85995006		-1.57215749		0.10203067		2.1063709878390484		-0.21329881786457783		-0.8324592219333771
C		-0.43194136		-1.53004941		0.13129094		-1.2819404467813436		1.1343242634068296		0.7815573450724065
O		2.2266751		0.86833781		0.56022846		0.49202789073674125		1.5979503606596988		0.06742070020069345
O		2.29671883		-1.28555217		0.02521647		0.4847517717449467		-1.287735507530607		-0.2596371409497722
H		0.81643582		2.24070714		-0.29724575		5.489573691977626		0.13280282415783073		1.369620359721922
H		-2.38209855		1.71061542		-0.69610768		-1.559759040615862		1.7757971117468665		-0.15715816412587008
H		-3.57893647		-0.44092531		-0.07505348		-2.7842785271477504		-0.37389675801355865		-0.5644267608027023
H		-2.42094232		-2.49938414		0.18071198		-0.09269279269799621		-0.48835399006332003		0.1884104882192996
H		0.21497746		-2.36610927		0.47555919		-0.34238732360790586		0.15676740787335314		-0.4980208750043542
H		3.26794763		-1.22350603		0.23506385		-0.8509442192527339		0.5136438231721661		-0.035658783468437365
16
Lattice="50.0 0.0 0.0 0.0 50.0 0.0 0.0 0.0 50.0" Properties=species:S:1:pos:R:3:forces:R:3 Energy=-13472.345900863118
C		1.63492209		-0.1748733		0.16714824		-0.5526038002054259		0.9194294075680944		-1.0063416405384364
C		0.1994394		-0.18591406		0.03311784		-0.737568290332059		-2.1111637297471404		0.5517746194485057
C		-0.58331176		0.99482717		-0.2672655		-1.931951414369692		-2.5207177799893254		1.5625531612229175
O		-0.13533812		2.17824749		0.04654153		0.6245015622728637		1.9434578721726214		-0.9588092457412147
C		-1.98736042		0.80992822		-0.44214507		-0.550108133248799		-1.059732396643791		-0.9226612327706788
C		-2.55245219		-0.5220643		-0.39813349		0.055969623959016813		2.2935681724949664		0.9077074399014593
C		-1.81538036		-1.53519329		0.17478062		1.7915430614880459		-1.996912031680971		-0.622764627847608
C		-0.40421014		-1.44827769		0.33948656		-2.080807280825622		2.1218039314861277		-0.4493009390970355
O		2.26426869		0.86981668		0.2068644		1.0143960838673933		1.7650082488253525		0.30608792408553287
O		2.28189227		-1.32895653		0.03494372		-0.49777430621493207		-0.9626430176067763		0.3458302363768257
H		0.83863154		2.09483937		-0.0006519		0.9450111123033764		0.14918496765557568		0.4399563162213419
H		-2.66947167		1.67363686		-0.64709134		0.5900506316291889		-0.3254825776895358		0.1258985380995735
H		-3.63788795		-0.68360313		-0.49148815		-0.009732448070651168		0.2294103270476765		-0.36380888064729
H		-2.19697051		-2.56413827		0.25228346		-0.5401723109211793		0.08666828670610463		0.3500969305861089
H		0.09359791		-2.23575206		0.89522936		0.6726667569705296		-0.4067686713857452		-0.29822019426531254
H		3.18876158		-1.01031125		0.09827092		1.206579100275883		-0.12511100921323348		0.03200159496531064
16
Lattice="50.0 0.0 0.0 0.0 50.0 0.0 0.0 0.0 50.0" Properties=species:S:1:pos:R:3:forces:R:3 Energy=-13472.318394419266
C		1.55328211		-0.16571856		0.1536148		2.0801922215367212		-0.3555330139174463		-1.684803972478854
C		0.15441657		-0.25159437		0.00872876		0.2222845661664701		-2.5649446617684797		1.8671073708739758
C		-0.53618187		0.93857432		-0.02730478		-1.7238146002436217		0.30841348685959274		-0.8561349165020853
O		0.04202013		2.10455989		-0.02744261		0.4456809287450562		2.4096042675500287		-0.14737419114864939
C		-1.95610486		0.89048086		-0.17574704		0.5180930142810655		-1.2180944026735532		-0.35453624865901895
C		-2.55418949		-0.41992111		-0.32378182		-0.39556344402461646		2.4916728507704584		1.3021843871686825
C		-1.83293768		-1.57447315		-0.01902105		0.7793449622577874		0.8178591614317141		-0.15178075336778216
C		-0.49148982		-1.49476885		0.21984538		0.904935893579817		0.6707729338327552		-0.7754491239628549
O		2.13354795		0.90132204		-0.03526691		1.6191315195571538		1.3894013987031342		0.5332953814001427
O		2.31152639		-1.2917		0.18060711		-2.7564697328879904		-1.103207127915567		0.4575410160714176
H		1.06943253		2.06947187		-0.10013691		-0.9917171545571125		-1.0671408760243182		0.2988322710745913
H		-2.29850415		1.94865392		-0.22561995		-1.0158496827285792		-0.7551101041820558		-0.1894715310557827
H		-3.64059084		-0.53851647		-0.36883587		-0.3336996175799428		0.2659365492874929		-0.45536905099788005
H		-2.19960425		-2.55103212		0.012904		-1.5840882581761793		-1.8258422456254468		0.012566986418788208
H		0.1204316		-2.36726253		0.45248763		0.12316854080438643		-0.25492040084997325		0.00995927078809457
H		3.20003423		-1.01954238		0.30850581		2.1083708946916464		0.7911321845216648		0.1334331557992774
16
Lattice="50.0 0.0 0.0 0.0 50.0 0.0 0.0 0.0 50.0" Properties=species:S:1:pos:R:3:forces:R:3 Energy=-13472.552142435641
C		1.61709358		-0.09003079		0.15887169		0.6723093736365392		-0.6437747569653723		0.6332274748932231
C		0.22234717		-0.26493031		-0.14201566		-0.06272787135993124		-0.5776527723737812		0.03822962948035817
C		-0.64394642		0.86036419		-0.18645536		4.398045954260989		1.6162712701777944		-1.4456895309169333
O		-0.07926487		2.08026753		-0.28587466		0.495681736805809		0.33383254361136233		0.3113541089225531
C		-1.98534592		0.78036757		-0.30001792		-0.7535925876972515		0.9317095617225661		0.7999203692596445
C		-2.56950821		-0.40925359		-0.09870278		0.6863116526622826		-2.4872640259805774		-0.07054957843426372
C		-1.73900547		-1.56354155		-0.01368198		-1.8156930731607441		-1.2153711416685464		-0.38144916774686843
C		-0.36156532		-1.53118656		-0.10294972		-1.4059629537767486		0.4946808577823862		0.9499069040246078
O		2.1462121		1.01881965		0.29220082		0.6917404340607528		0.12260948014148809		-0.08761383559033704
O		2.29267297		-1.26246504		0.44760434		-0.30216637475937824		1.0518630213175726		-0.032066026809553796
H		0.94689302		1.97847771		-0.17755816		-1.0850133851578967		-0.19502943325305144		0.1300910302727491
H		-2.4705225		1.71347344		-0.17841069		-1.1001224726556993		1.3302856701196282		-0.3493548073809076
H		-3.61951206		-0.43809142		0.03757722		-1.5658452016606244		-0.4494025490924261		0.08466694003575843
H		-2.20888183		-2.56571819		0.11574207		-0.001986948492861693		0.4269468429552174		0.04748508649977267
H		0.11193917		-2.43764217		0.21804283		1.0758200974119778		-0.7068783693355868		-0.3219818151003658
H		3.09249314		-0.97459742		0.94162698		0.07320156846072219		-0.03282614773661078		-0.30617667856531244
16
Lattice="50.0 0.0 0.0 0.0 50.0 0.0 0.0 0.0 50.0" Properties=species:S:1:pos:R:3:forces:R:3 Energy=-13472.492696942907
C		1.57897366		-0.2173877		-0.00303387		3.433742158303438		1.8479283813998657		-0.22985132265520192
C		0.19955906		-0.23885125		-0.02751282		-3.3936229737164885		-0.548740974874583		0.6459040931491433
C		-0.5431199		0.97107087		-0.08566244		1.2586141651269467		0.1075177733007919		0.645659941196656
O		0.00842304		2.1775074		0.11385168		0.6416202239710035		0.13478324204876196		-0.46079068472967055
C		-1.92610725		0.84146653		-0.22315346		0.9556959483925652		2.857717357004592		-0.27685139626199656
C		-2.56347866		-0.32017511		-0.1430842		1.0232945689293171		-3.4213392082638485		1.509462967072552
C		-1.85524599		-1.51690795		0.23735036		-0.6160368737297232		0.4002934510165261		-0.5495438789575939
C		-0.48828496		-1.47927477		0.23279096		1.2411198138405863		1.5271996705392141		-1.0771594364504116
O		2.28473578		0.79380464		0.21457528		-0.37950171139796424		0.12099241054379081		0.08302163972577908
O		2.16495851		-1.34970043		-0.35220775		-0.522080332425087		-1.8029032235233207		-0.20714760791082265
H		1.02700618		2.08282599		0.21488989		-0.9819897972706434		-0.5559535361971959		-0.0910786541578583
H		-2.53193408		1.73515518		-0.22602681		-0.20853996309563672		0.8232704593289534		-0.29352674835980097
H		-3.59779438		-0.21887378		-0.0831188		-2.491168863136438		-0.4689510060852011		-0.1291454813885167
H		-2.31724867		-2.44196986		0.55075774		-0.7436306429619097		-0.49017561662542214		-0.08965498293701543
H		0.2376071		-2.28194121		0.32173022		-0.3256739706059549		-0.8851213274138909		0.39072570781188526
H		3.11301199		-1.26251125		-0.25363681		1.108158249775989		0.3534821992230283		0.12997579343081064
16
Lattice="50.0 0.0 0.0 0.0 50.0 0.0 0.0 0.0 50.0" Properties=species:S:1:pos:R:3:forces:R:3 Energy=-13471.980015819267
C		1.65396715		-0.16084268		0.15399563		-2.624461739549367		-1.6955827052540662		-1.7468755440558037
C		0.21308403		-0.31123284		-0.23618892		-0.02929180654066435		-0.6917671221111615		0.038875027786101114
C		-0.55236697		0.93415035		-0.22560752		-0.6395843730967569		-0.9096130386915333		-0.16891098502997198
O		-0.10858796		2.19672366		-0.38241342		-2.7561551327099534		-0.2754648517702387		0.7002772163354408
C		-1.93874601		0.84708722		0.02583532		1.7345065839994902		-2.904831124791451		0.06531481247739726
C		-2.53955302		-0.40692864		0.27468871		-0.762619987869724		1.4304195952078038		-0.6522209849880952
C		-1.88335212		-1.61596149		-0.00586373		2.2467824774665033		1.9804653020727951		-0.7019134663624298
C		-0.47236159		-1.59170175		-0.36496049		-0.6469922868345973		-0.5170338740608929		2.8298738014306193
O		2.19823653		0.89897159		0.05305058		1.6628732341771424		3.2864853123012874		0.02647814554987984
O		2.33340607		-1.22347856		0.56302377		0.4783855661481103		-0.48142589559015087		0.6345945818453769
H		0.78763442		2.18427065		-0.5997524		3.5302273281067285		-0.21482240215275072		-0.49320252490916455
H		-2.43843067		1.75322539		0.08876962		-1.4508412502429515		2.1013187702038607		0.27420614252571834
H		-3.60695694		-0.27497915		0.59066515		0.45619550638549067		-0.8505611763095836		-0.12560635794076294
H		-2.40743379		-2.51437601		0.12116225		-0.8443965966195931		-1.8840888899315757		0.09743005020071058
H		0.04753647		-2.65495549		-0.1989977		-0.5182025946961352		2.3615576007062975		-0.7964331820949601
H		3.17093221		-0.74298221		0.79513298		0.1635750718762769		-0.7350556026727629		0.01811321580788199
16
Lattice="50.0 0.0 0.0 0.0 50.0 0.0 0.0 0.0 50.0" Properties=species:S:1:pos:R:3:forces:R:3 Energy=-13472.566722015694
C		1.66349648		-0.10134848		0.12418321		1.4187503351551747		1.916929538689796		0.2695133651070186
C		0.19824626		-0.28494512		0.10040195		1.194455372035368		-2.8874802410593126		-0.4522520512607345
C		-0.58326246		0.80196805		-0.05562986		-1.1300092838809106		4.054635897253121		-0.9368625151780832
O		-0.10192354		2.04978394		0.05141737		0.6722665390585226		0.3819358261458447		-0.018853076442335765
C		-1.94993613		0.77249469		-0.43999225		-0.29951587597273055		0.12068017578062686		0.9631218598522612
C		-2.63616483		-0.42265603		-0.34370495		-0.523318524266692		-0.14060452804987225		-1.0290766713188446
C		-1.84739026		-1.60189321		-0.10872168		-3.5331130314069976		0.49679502445773593		0.19279792143120295
C		-0.53129864		-1.52160103		0.06464407		3.475750178088105		-0.3192012699177957		0.6253062661280602
O		2.24854519		1.00651194		-0.18504826		-1.4692119877395562		-2.618124638839874		1.0391042306058655
O		2.39334446		-1.13317437		0.62491954		-0.7660676828904511		0.23817249222205938		-0.2372428841771848
H		0.91082372		1.97917435		0.08623377		-0.46830658479864457		-0.04563558917982556		-0.23581360795153547
H		-2.37448137		1.78021921		-0.613328		-0.20533657429358412		-0.3877964500247251		-0.08435871619346516
H		-3.74317525		-0.45276519		-0.61235135		1.0882917987490561		-0.18371441978860337		0.47813894593662576
H		-2.37322795		-2.53397842		0.09966943		-0.07689927754905533		-0.4752015634635993		-0.3712419397736657
H		0.01567977		-2.4570227		0.2041612		0.33243206374068196		-0.19429204087759502		0.12273973222566041
H		3.25164513		-0.74724904		0.88824193		0.28983258739377654		0.04290188949614251		-0.3250209104129077
16
Lattice="50.0 0.0 0.0 0.0 50.0 0.0 0.0 0.0 50.0" Properties=species:S:1:pos:R:3:forces:R:3 Energy=-13472.757759246686
C		1.64004034		-0.17895616		0.16370777		-0.26440987967557333		2.44948012293749		-1.0506003011521812
C		0.13923635		-0.23220516		0.09179865		1.9651906355339208		-2.1269285513852374		-0.48178826686419834
C		-0.57619487		0.9359687		-0.14955793		-1.2558910583881275		2.1147868254228666		1.02985694969438
O		-0.02066293		2.18512914		-0.14917284		-0.4272235450732321		-1.4896446985181295		-0.2029842720470531
C		-2.02618498		0.80679849		-0.15696207		1.8603441869550665		3.8188570506157986		-0.713739306595203
C		-2.57536856		-0.38769569		-0.10707689		-1.3473846371678517		-5.223436031003912		0.16763119273984928
C		-1.85776752		-1.66080837		-0.03920202		-0.1377403705937671		3.1669965857075035		0.2439889959713623
C		-0.499609		-1.51462526		0.04611915		0.18570609911120997		0.31184015025677997		0.28210765664096493
O		2.21823561		0.9303856		-0.00024378		-0.3784377375039218		-0.5816475981389196		0.4749748950123433
O		2.39592519		-1.26456147		0.26198327		-1.261603689571292		-1.2640056141080822		0.3250511465856252
H		0.9703707		1.9819021		-0.06273064		0.024595995220280373		0.11564904119104122		-0.11069416552006105
H		-2.66745553		1.72238297		-0.25493842		0.5911845395281563		-0.4176381641011727		0.11627901287805079
H		-3.63860176		-0.60075549		-0.10666482		-0.8554565566543154		0.727512191800381		-0.034634867361039275
H		-2.43190635		-2.54867378		0.12766313		-0.23627887477253479		-1.0672028910316265		-0.22799179803307815
H		0.12192424		-2.38117125		0.11513838		0.8402397399356912		-0.9125377713371985		0.21123319361617582
H		3.31183207		-0.96663409		0.19659647		0.6971651531162898		0.37791919742622976		-0.028690014143874485
16
Lattice="50.0 0.0 0.0 0.0 50.0 0.0 0.0 0.0 50.0" Properties=species:S:1:pos:R:3:forces:R:3 Energy=-13472.78181441427
C		1.67292731		-0.16701016		0.02968477		-0.01992208969849782		-0.7167871950804231		1.9631709826093444
C		0.20701873		-0.24483219		-0.05925686		-1.1886341888783827		0.52818017173846		-0.4581814264371035
C		-0.61774835		0.97448817		-0.07918543		1.1248076337322588		-0.1943345155011743		-0.20753759283240297
O		-0.06331944		2.21179824		-0.06157856		-1.2331702200969539		-0.4975065515357827		-0.1794104445840477
C		-2.00734245		0.88422825		-0.15086401		-1.0761289383190205		-1.0722014240336224		-0.3197069544798764
C		-2.61856807		-0.39883368		-0.11128025		1.2082141675954359		0.1573845240447515		0.4232789072410398
C		-1.8559172		-1.6001268		-0.07598716		1.0970270701847804		2.3195055636361777		0.08878790412007356
C		-0.4416684		-1.5028829		-0.07365864		-1.8751782178408527		1.9355757441749168		-0.10658286878348554
O		2.30124101		0.87814042		0.19658683		0.10072939257128492		0.325762570819547		-0.91229927581158
O		2.28929888		-1.38634654		0.27434394		1.7677288873051744		1.6386775082909317		-0.4700116889672471
H		0.83999217		2.03871897		-0.33242496		1.749616082873792		0.23994943301189708		0.18843748480208306
H		-2.6533255		1.76914775		-0.35433913		0.5135041608505665		-0.15881071494665416		0.4808114533659996
H		-3.69354859		-0.43625636		0.0270837		-0.65534574945667		-0.13825942489208348		-0.3456354496042853
H		-2.36197444		-2.52222396		0.01560872		-0.6377493767984193		-1.5527565898403977		0.024097869701378945
H		0.18673358		-2.33499948		-0.05687171		1.1304467313661275		-1.9694763044842463		0.046834854520159945
H		3.27366838		-1.07205355		0.40651728		-2.005945242546499		-0.8449027954022981		-0.216053806282113
16
Lattice="50.0 0.0 0.0 0.0 50.0 0.0 0.0 0.0 50.0" Properties=species:S:1:pos:R:3:forces:R:3 Energy=-13472.287226161616
C		1.64505147		-0.11181195		0.15741467		-1.188752305355818		-2.4746729740365656		1.4619454332513764
C		0.19108873		-0.3150191		0.10134514		0.846567944628381		-0.03526350207442525		-0.6292766664135373
C		-0.51059261		0.89354339		-0.17940009		-2.5139035853844716		-0.2888023977947602		0.3635298645364653
O		-0.02310955		2.12694253		-0.33214302		2.6102999492859196		-1.39009503090345		-0.4570749779194817
C		-1.93619106		0.80661439		-0.24170671		-0.2143061760678688		0.25948477737874864		0.14463015563041495
C		-2.67302349		-0.36829478		-0.13518328		4.2667355011994275		-0.1515163411226917		-1.2020116898454234
C		-1.83847942		-1.57013182		-0.13853009		-2.9905429097140233		0.14559149108781788		1.2682980707706502
C		-0.49577913		-1.58328687		0.16181982		0.8580886977646703		-0.47761397810112816		0.2614477631905111
O		2.13728356		0.98288215		0.37028947		1.2940296708179584		1.4565491505963712		-0.7538011041604646
O		2.37660346		-1.25441998		0.18988909		-0.28030752450096463		0.392913767990968		-0.25637070869916245
H		1.01292465		1.85678479		-0.35592632		-1.3525877785563143		1.382761936266467		0.6901337517196694
H		-2.46333502		1.74020818		-0.43692325		-0.12307778086417162		0.4877962663740453		0.10081207924769593
H		-3.70586375		-0.23410306		-0.3262047		-1.6449908005855125		-0.7001159567476143		-0.006169773318297736
H		-2.43032078		-2.48895273		-0.11908665		0.15729571814290957		-0.5822273818929833		0.03148002098593445
H		-0.04081068		-2.60463847		0.53971784		-0.3124151003369738		2.0433680598671007		-1.0855197382067894
H		3.28058834		-0.93196297		0.34708673		0.5878665823709769		-0.0681578868879001		0.06794757065250144
16
Lattice="50.0 0.0 0.0 0.0 50.0 0.0 0.0 0.0 50.0" Properties=species:S:1:pos:R:3:forces:R:3 Energy=-13472.642219649782
C		1.66317808		-0.14960722		0.1024261		-1.706913453869623		-1.919050904453888		0.0844679366540976
C		0.16766535		-0.20143254		-0.03837435		2.999115995964797		0.41850945952723495		-0.5958537656422562
C		-0.58542746		0.9642459		-0.11849311		-3.161092253075545		-0.478805787242408		-0.002272289517367116
O		-0.06900117		2.13815541		-0.25423907		2.691529890089939		2.0396861887740005		-0.03393249341010765
C		-2.02968177		0.85247088		-0.0686966		1.8526065549528314		0.014404193865811047		0.47178122498009273
C		-2.57703356		-0.39073425		0.06455448		-2.113530224482906		-1.0122543549665732		0.50871301302641
C		-1.81457972		-1.55830545		-0.01365826		0.22413154380535746		-1.4289990607327698		-0.5757899053175987
C		-0.4096423		-1.41868988		-0.2015921		-3.372209644207096		-2.4759007786215568		1.0016146674482111
O		2.34565424		0.84584027		0.00360221		0.7566269521800485		1.5687029827809866		-0.052560546907185576
O		2.20022533		-1.37828169		0.42756667		0.8435353799177697		1.4403343859118838		0.13302018521578432
H		0.94952695		1.98656497		-0.28262867		-0.9618265380992801		0.40900167444740465		0.1120096961435828
H		-2.69997561		1.67378044		0.09270672		-0.1319772429452817		1.2155422228702997		-0.24963369861003762
H		-3.69711342		-0.4500213		0.27300538		1.0806353107613584		-0.07152037555115646		-0.3110584834855587
H		-2.34469438		-2.58010281		0.05218906		0.9140603271841223		1.2682507624732011		-0.25471538108700637
H		0.13731695		-2.33741026		-0.33559806		0.7599327223084285		-0.4432981332154956		0.09455869365586317
H		3.14261684		-1.11899136		0.6553627		-0.6746252690628592		-0.5446025272890367		-0.33034885314692386
16
Lattice="50.0 0.0 0.0 0.0 50.0 0.0 0.0 0.0 50.0" Properties=species:S:1:pos:R:3:forces:R:3 Energy=-13472.25290574551
C		1.66572811		-0.09484601		0.04750194		1.785191048380445		-0.27992016210456905		1.5963487691027973
C		0.2382876		-0.2815928		0.13864743		-3.4049775307469563		1.577595451461604		-0.627494326307143
C		-0.60171318		0.91745152		-0.18240802		0.8288946959867757		-0.2389781216743799		1.0270118698234416
O		-0.11028261		2.16805847		-0.08158006		2.2006993106551596		-0.5819626096934556		0.18272660196904142
C		-1.98287363		0.82967652		-0.45400946		0.2357721103471426		-1.8019509897709705		0.17812011077112383
C		-2.58833906		-0.4164772		-0.26187893		2.6523760518812627		1.365640497776955		0.43435455100480785
C		-1.8548954		-1.49096383		0.20626569		-1.6618986318276292		-2.179564585880092		0.8966379153631219
C		-0.50505042		-1.52417991		0.38710844		1.7790111963379078		2.26315562210332		-1.2167669421315443
O		2.4472875		0.89405207		0.17345777		-2.325323815735604		-0.7378849473925932		-0.7010023702600352
O		2.18644343		-1.3349286		-0.01445799		-0.013279336249834092		-0.5206247281034659		-0.4553790783000568
H		0.88762162		2.05962116		0.20263627		-1.361335442709088		0.24512295529239198		-0.6415203109036736
H		-2.63427052		1.64523232		-0.70619028		-0.03095777851974647		1.074940523033862		-0.20878128683468955
H		-3.61061043		-0.47807337		-0.28438433		-3.1928811149685217		-0.2875636403104683		-0.3966947808204615
H		-2.41678163		-2.40080417		0.55895436		0.25502365635136204		0.44735903633087526		-0.5680669800252222
H		-0.08379761		-2.50201466		0.56156539		0.8869376060814987		-0.2999686986546183		0.4566425183743221
H		3.12267338		-1.18502913		-0.14570363		1.3667479747358255		-0.04539570525852121		0.04386368775210743
16
Lattice="50.0 0.0 0.0 0.0 50.0 0.0 0.0 0.0 50.0" Properties=species:S:1:pos:R:3:forces:R:3 Energy=-13472.412917489148
C		1.65821991		-0.13793201		0.05404025		0.7157557713519079		-3.399813984346576		1.1416885712357168
C		0.21807102		-0.26921013		0.11993804		-1.825632495032735		0.35497364472217324		0.49856420051614453
C		-0.57869521		0.91805207		0.16322958		0.2160624451886037		-1.2023859396158958		-1.686917470667392
O		-0.1144201		2.12755482		-0.05087389		0.522826003752597		1.8965653220983987		0.5858951633409735
C		-1.94014486		0.85944603		-0.06414639		-1.343743183815833		0.33618839398020206		0.25075233415645876
C		-2.60439587		-0.32180028		-0.22272109		0.7779768268643847		-1.378235560641838		0.8548181003270025
C		-1.89066446		-1.54991721		-0.10414979		0.42380464640747395		2.582500770951836		-0.30264079470749267
C		-0.51183473		-1.48860212		0.03093022		1.1603750401957318		-0.8866479970258103		0.4166677783607795
O		2.29349739		0.81578924		-0.29704628		0.7059900532068553		2.51803807347121		-0.8552222263157552
O		2.339035		-1.29547446		0.44132344		0.4259872044258752		0.778694884544362		-0.4673560993964175
H		0.70435811		1.97621857		-0.52339914		1.8252083658616913		0.3358478770826934		-0.1987921912503771
H		-2.41050986		1.81593225		-0.29646261		-0.2868044449805353		0.2969245639799568		0.21094044781467838
H		-3.66032318		-0.36252289		-0.38675058		-1.12043439300959		0.1004703282206887		-0.4089892303082929
H		-2.46370744		-2.38627384		-0.35714638		-0.6674326080784123		-2.231913839532692		-0.06127324405749669
H		0.11085955		-2.40578496		0.0770009		-0.27892483666389023		0.08979737062792469		-0.17792182729833725
H		3.3141894		-1.08534477		0.27724483		-1.251014344252063		-0.19100395993869607		0.19978648824980702
16
Lattice="50.0 0.0 0.0 0.0 50.0 0.0 0.0 0.0 50.0" Properties=species:S:1:pos:R:3:forces:R:3 Energy=-13472.397299430368
C		1.61682416		-0.17374331		-0.00248519		0.9750383057590619		-2.8061891080009835		-0.0674601409225885
C		0.15890752		-0.25794574		0.14149617		1.3909986193847277		1.0709519193382795		0.8018094101456117
C		-0.58319264		0.93662195		0.19979516		0.43744661104166777		0.6916847439671252		-0.9594487305097766
O		-0.03055881		2.12738913		0.3159708		1.290350216561793		1.7518169471464236		0.12742803592492746
C		-1.9328668		0.92775438		-0.10988155		-0.7407374320405233		-0.9997304088140514		0.9380306187485761
C		-2.590039		-0.28011568		-0.13809225		0.4221459249391965		-1.5617937087826719		0.04347658246602403
C		-1.88186274		-1.49813984		-0.06095263		0.7327043802895435		-0.5566007856971869		-0.9876632962642877
C		-0.47684039		-1.4550733		-0.01619366		-1.4109910030425876		-0.7968620420957484		-0.5751081516137073
O		2.24045523		0.74218501		-0.47581134		0.5428444583961161		2.2852151726714554		-0.30327513726981
O		2.32750928		-1.36710626		0.24643868		-2.115708977268686		0.4635967866772756		0.3337728940189265
H		0.94583858		2.13114349		0.09426565		-0.5678685937083108		-0.5388268012352523		0.16616931492661002
H		-2.56066805		1.77813161		-0.23687768		-0.148447780968369		1.4727947685183256		-0.03536403220650457
H		-3.64641837		-0.30146845		-0.31487711		-1.095869096760589		-0.033403617497864316		-0.20359465192827125
H		-2.27438797		-2.46972209		-0.4107592		-0.5800366991887156		0.19005337169234404		0.4575971175415448
H		0.14901462		-2.24424761		-0.41525894		0.11878660975316467		-0.977311418029428		0.47397766695535387
H		3.14741954		-1.28957665		-0.25369964		0.7493445596966356		0.3446042829860825		-0.21034750001262903
16
Lattice="50.0 0.0 0.0 0.0 50.0 0.0 0.0 0.0 50.0" Properties=species:S:1:pos:R:3:forces:R:3 Energy=-13472.65949225818
C		1.65578018		-0.14927956		0.13916906		-0.4826547286163909		0.050959161038533964		-0.7147944873165675
C		0.19949672		-0.29441376		0.02435957		-1.5156714097818078		0.9788162332648086		-0.16661077333269744
C		-0.56977361		0.94691522		-0.11766275		-0.0005493933151587559		-0.31912969040687267		1.0747506727793164
O		0.07088803		2.14052514		-0.07062241		-0.5725321119734794		-1.0801210387148494		-0.4504334071782542
C		-2.02460175		0.85942793		-0.08716224		2.4392929495686406		0.9648824998483039		-1.0844684141401082
C		-2.63284768		-0.3551373		-0.23583526		0.2577996249703747		-0.6533880601173393		1.0519950217518679
C		-1.90525681		-1.53215723		-0.10273143		2.4966032495397146		-0.5473000258407587		0.26953743063224267
C		-0.51226717		-1.55048664		0.07550895		-1.2843105410614803		4.878782897058507		-0.9133496742811371
O		2.27983879		0.92341068		0.00753269		-0.06409976056389236		-0.4140154283798838		0.2516898097768874
O		2.25426614		-1.32819509		0.27913497		2.8241439438565354		-0.41044380618866505		0.07693974671219928
H		1.06380384		1.86317607		-0.09970849		-0.2479155332375742		0.4404744449225344		0.14367529935288004
H		-2.56968969		1.78727119		-0.12469621		-0.4578914060049157		0.7345335144727625		0.09742573074746524
H		-3.69015031		-0.46988335		-0.14238328		-1.3522452047763083		0.21101321003303755		-0.34975132290441846
H		-2.31600097		-2.49469691		0.01376804		-1.4177800008368435		-1.4723879685823258		-0.0882925039704817
H		0.11351302		-2.30949646		0.3294717		1.5370205131352073		-3.3432193252185436		0.6042646667080797
H		3.28286298		-1.20409122		0.22137378		-2.1592101394805594		-0.01945661718924875		0.19742215324066395
16
Lattice="50.0 0.0 0.0 0.0 50.0 0.0 0.0 0.0 50.0" Properties=species:S:1:pos:R:3:forces:R:3 Energy=-13472.290707100989
C		1.63411738		-0.07336654		0.12113232		-1.1921007557960268		-3.66386545224691		2.072731805873125
C		0.19211335		-0.29993126		0.0061854		-0.28814568663527945		0.8978447911686981		-1.5290101385137655
C		-0.56345254		0.90431321		-0.29413914		-1.2970300453174795		-1.6420322836448213		2.1214857317637197
O		-0.13209491		2.11667044		-0.23215887		1.6223370680858293		3.335152334906351		-0.3461192797898271
C		-1.97573681		0.87030994		-0.25286937		-0.19041841691363873		-3.548267216053563		-0.8761722430425217
C		-2.55831122		-0.41001969		-0.26733698		0.8091281066051104		-0.8387398097962431		0.8447316113564198
C		-1.8134804		-1.64016723		-0.0753274		0.5666016569337993		0.7152462815572064		0.2940054363390983
C		-0.40066398		-1.60522404		0.0931374		-0.09484413752449349		1.547516990209661		-0.7373698525930851
O		2.21821373		0.96028819		0.24952017		1.3197869304744265		3.349747150357644		-0.6852295782022597
O		2.30020302		-1.23479616		0.46878274		0.03403852570286854		0.15267991955168947		-0.9406930474537109
H		0.82222216		2.26725195		-0.01923971		0.0653440202088658		-0.9557577577116236		-0.1646716987799717
H		-2.69033484		1.6606897		-0.22047004		-0.08339789495668666		1.4993626969892337		-0.1817639809600774
H		-3.65422952		-0.46208723		-0.25739485		-0.1667890536231931		-0.18104083249591815		-0.07301315802392498
H		-2.38290568		-2.55513524		0.10230963		-0.0754721096279662		-0.3605895510058796		-0.2738109639758311
H		0.41294687		-2.37839888		0.19546458		-1.349623553766692		-0.06401167457092466		0.1696689462304063
H		3.22453004		-0.91687757		0.45752614		0.32058524330643123		-0.24324558721459985		0.3052304097722058
16
Lattice="50.0 0.0 0.0 0.0 50.0 0.0 0.0 0.0 50.0" Properties=species:S:1:pos:R:3:forces:R:3 Energy=-13472.144582572486
C		1.67459658		-0.12171096		0.18411011		0.2811779971740279		0.012580921797710708		0.285777032172891
C		0.24629471		-0.31610579		0.04124338		-2.434366561720255		2.837303723811186		-1.2210089023287918
C		-0.66059157		0.94178284		-0.18266103		4.635326582232009		-0.5691887008953901		1.1362401466093928
O		0.03490625		2.1283992		-0.18045698		-1.0031278644797699		-1.5670999514063368		0.0558344353568498
C		-2.04942991		0.79726072		-0.27021278		-0.44016205589318297		3.338205417019877		0.45489658508813857
C		-2.69551126		-0.4176957		-0.20725194		2.014752402025521		-1.7575792520419098		0.5629814923156327
C		-1.87221832		-1.59763401		0.01684122		0.8396946660737779		2.9574625313006866		-1.3541685441779259
C		-0.45413869		-1.51137876		-0.0219855		0.422235245061663		-3.3276678022954678		1.5618391144638106
O		2.19533042		1.0280954		0.31921452		0.04354055151170519		-1.6970255569042014		-0.48029389030749403
O		2.39051536		-1.29993341		0.20928127		-1.3489303329428757		0.9910152948268052		-0.019303225176976326
H		1.07125824		1.85640568		0.0213017		-1.336527382903286		0.26227067045581304		-0.1562028450497732
H		-2.61008762		1.81887775		-0.16318837		0.6259923392851968		-1.6524002569852259		-0.6956369922645596
H		-3.76806854		-0.41140536		-0.31943507		-0.7915734886615649		-0.40897097547612515		0.20158281515718632
H		-2.25117809		-2.56056939		0.0968357		-1.3016997856522041		-2.16794849624003		0.09042965630774424
H		0.16050367		-2.55408312		0.14285323		-1.362109447593005		2.3971665561962263		-0.4655994188991829
H		3.28829512		-1.1031861		-0.06034984		1.1557771364822425		0.3518757739922571		0.04263264357718226
16
Lattice="50.0 0.0 0.0 0.0 50.0 0.0 0.0 0.0 50.0" Properties=species:S:1:pos:R:3:forces:R:3 Energy=-13472.278244662224
C		1.63286221		-0.13565154		0.09545788		-0.600157175204125		1.0819462133992601		0.2776606252586882
C		0.14200412		-0.23908973		0.16761986		3.1077578555506298		0.7430840778601856		-0.4207552666824432