16
Lattice="50.0 0.0 0.0 0.0 50.0 0.0 0.0 0.0 50.0" Properties=species:S:1:pos:R:3:forces:R:3 Energy=-13472.695533820503
C		1.65798273		-0.16890676		0.17206207		-0.09009453872679238		0.9339160310000041		-0.9079567854822533
C		0.1925582		-0.20248779		0.06831588		-0.5561580931616008		-1.644348230493204		0.13856785442262656
C		-0.58622239		0.979352		-0.06423797		1.2313691623598295		0.326360557983716		0.46881931418328027
O		-0.06602986		2.23299185		0.04281342		-0.930531122317522		-0.4953604517596548		-0.4563364542586515
C		-1.95173006		0.84375305		-0.26196277		-1.6366719450114648		0.29686455443308385		-0.08161288090304515
C		-2.57065171		-0.41386708		-0.2594636		1.8090068166472522		-0.3850568882259234		0.2299180684922551
C		-1.81651862		-1.60322918		-0.09926744		-0.578133928612076		0.7263415685488285		-0.4629787963308156
C		-0.46780216		-1.48803376		0.01282048		2.9930180078456723		-0.08556919154341246		0.6081263093314864
O		2.26690605		0.88136582		-0.07621204		0.4929455174410662		-0.5598516370628759		0.33723699267757357
O		2.20987057		-1.37771706		0.41681234		3.2140710156165935		-0.34822259641000103		-0.661168732385841
H		0.87099784		2.14262664		-0.20645888		0.9775260022960096		-0.13843575114420623		0.23243430427385972
H		-2.49631296		1.80283055		-0.41376353		-0.05908549241078859		-0.48278148400031706		0.08975885550315364
H		-3.58730066		-0.62815318		-0.40699835		-2.151731520406858		0.4865311807937816		-0.3278034096338507
H		-2.25416013		-2.59046536		-0.18648748		-0.5042266437663633		-0.4150371847606593		0.10035236600944067
H		0.23132591		-2.39188482		0.10293465		-0.9884228001265952		0.9953960945926534		-0.14475696243640349
H		3.25883036		-1.43567863		0.16976047		-3.222880489088425		0.7892534280481867		0.8374000079592474
16
Lattice="50.0 0.0 0.0 0.0 50.0 0.0 0.0 0.0 50.0" Properties=species:S:1:pos:R:3:forces:R:3 Energy=-13472.345237939391
C		1.61848412		-0.11445394		0.12988606		0.9708635541974296		-2.6941945299437595		-0.13086524084491594
C		0.22686015		-0.30151796		-0.08151277		-2.5264121049182604		-1.3024075589196922		0.7306079028036746
C		-0.58090152		0.85407036		-0.19491745		3.1705034161000416		1.2585930306592819		0.2472759970469499
O		0.02639711		2.05239012		-0.2197549		-1.5341754332642692		0.851128670190723		-0.30227796063488316
C		-1.94402364		0.81268366		-0.32335178		-1.4016074536656233		-0.4912551199823229		-0.2988624558252463
C		-2.64620303		-0.36223195		-0.1287191		0.886569424114395		0.1723280839235446		-0.4644045758562188
C		-1.83826097		-1.48819458		0.11777597		-4.17754177416254		-2.3549394270034822		1.5439254676802763
C		-0.51239901		-1.52517271		0.15876089		4.138747067637978		1.4258238512209371		-1.9112351623387989
O		2.11956123		0.96589982		0.30509426		2.026075128799336		2.4854786519724996		0.5385828549710149
O		2.37201694		-1.25266622		0.15426438		0.38657255351647973		-0.29811755582867294		0.41730011546266144
H		0.98138381		1.95349626		0.05090459		0.2156119879215885		-0.45840141002024165		-0.08564107958671009
H		-2.35486035		1.73348069		-0.6498713		-1.0190923579863396		1.3061746363702633		-0.18156729157122659
H		-3.72101337		-0.45492793		-0.3261433		-0.1266186526620485		0.05964717559887162		0.33604682904229183
H		-2.3437366		-2.42053285		0.50293218		0.053132308819507756		0.3474942543175349		-0.9108418717177736
H		0.0651233		-2.42445873		-0.06850524		0.04348424435332828		-0.6505085788866256		1.0153657496989124
H		3.29187546		-1.09706164		0.52575781		-1.1061119088010036		0.3431558263311413		-0.5434092783300083
16
Lattice="50.0 0.0 0.0 0.0 50.0 0.0 0.0 0.0 50.0" Properties=species:S:1:pos:R:3:forces:R:3 Energy=-13472.59302670757
C		1.65936126		-0.18112385		0.05836223		-1.3578076321150718		-1.3083615652639724		1.2217275256514557
C		0.19461208		-0.20154462		0.11025837		-1.9441674966343578		-2.3226395326539304		-0.7027448068459727
C		-0.61341224		0.98414308		-0.10853257		1.355451833168295		-0.04205152284949515		1.1084070811361584
O		-0.02735129		2.18072063		-0.15855412		-0.09367577684368834		0.7830335696410679		-0.3698152860732011
C		-2.01244331		0.91859095		-0.11843792		0.06389468937886306		-1.5518083155868556		-0.9309030580951841
C		-2.52473859		-0.4069527		-0.27733875		-2.9190065933235094		2.218139154555329		0.03987940350977023
C		-1.88549556		-1.58399072		-0.04677812		3.9098670048982314		0.7978308851742683		0.7241496517150624
C		-0.49637175		-1.48619337		0.23804104		0.36659935028791196		1.6861630061672037		-0.7506075369723391
O		2.26431329		0.85131553		0.21294366		1.649420348466558		2.0773320235794244		-0.3086457088935928
O		2.29542982		-1.39364182		0.05889815		-2.6252838754837318		-0.14552191703733025		-0.9300541312662852
H		0.95602116		2.07683739		-0.12854867		0.1252403357002818		-0.3331060012910817		0.25333459586624235
H		-2.60061291		1.85660472		-0.20197431		0.08943911311887275		-0.4845509685911003		-0.07039726628530263
H		-3.60221577		-0.54032629		-0.52412042		0.12330244385499232		0.4526806541512107		0.10340076871528503
H		-2.31226596		-2.53135596		-0.15034106		-1.1782862701423311		-1.8206787506471285		-0.06475816865143379
H		0.14941771		-2.33259139		0.47430971		-0.004804877514829105		-0.43237109921219247		-0.05920880251653088
H		3.12394805		-1.21848859		0.45388854		2.439817454605576		0.4259103798645828		0.7362357904279305
16
Lattice="50.0 0.0 0.0 0.0 50.0 0.0 0.0 0.0 50.0" Properties=species:S:1:pos:R:3:forces:R:3 Energy=-13471.990607827063
C		1.76797162		-0.1442484		0.15544526		-3.011776776225485		2.042827408302557		-0.7631873789067383
C		0.22139615		-0.16060928		0.13925147		0.42234287143835963		0.21029921469599347		0.30410570642241613
C		-0.69725581		0.95418019		-0.07794391		2.8312283613995364		-0.6066857716741616		-0.44674598250241004
O		-0.2303139		2.20102103		-0.07074635		-1.4880040776158328		0.8211428714953055		-0.5343571441455
C		-1.99667041		0.73147		-0.42403237		-2.47595554311806		2.048140232950215		-1.0194926273204088
C		-2.55822391		-0.51352441		-0.37546326		-1.0761172655108455		-0.17887796912743326		-0.17480919843649947
C		-1.7596163		-1.522807		0.11270567		0.6279452463727202		-2.736154624366228		0.9639414246835042
C		-0.38086749		-1.39888202		0.35609526		-1.9018179829329962		1.8791106172221832		-0.381740885107117
O		2.36146529		0.94566062		0.08886375		0.46988709330994366		-1.7607510162755589		0.37829036187295545
O		2.20957673		-1.42419842		0.04552451		-0.6916722998280136		0.8771527589292165		0.3248574910984586
H		0.60636031		2.06906715		0.33191176		2.664909254005025		0.5100906100793026		0.6751307479366903
H		-2.69349024		1.58487325		-0.73424493		1.1602447881115596		-0.6113613227019424		0.44008055192420814
H		-3.64126362		-0.56380378		-0.64554923		0.5615370980036246		-0.5608858890048254		0.24705596204174923
H		-2.14029128		-2.50654403		0.42308637		-0.5386256381269688		-0.06805607120425966		-0.270950971706784
H		0.18850812		-2.03269326		0.97600823		0.7040066528363021		-1.942521424993442		0.32246657088303154
H		3.15724793		-1.41496593		-0.00320097		1.7418682178811302		0.07653037567307731		-0.06464468015961843
16
Lattice="50.0 0.0 0.0 0.0 50.0 0.0 0.0 0.0 50.0" Properties=species:S:1:pos:R:3:forces:R:3 Energy=-13472.359394797539
C		1.6987282		-0.18471049		0.16812379		0.9877848580199068		0.6321023087448714		-1.4253379127308352
C		0.25200689		-0.2993523		0.11414859		-2.8772398458558324		0.6607153440612663		0.9997600793440818
C		-0.60637967		0.9407734		0.04102336		1.567984205192135		-1.5098499695145102		-1.5646093238118293
O		-0.1193854		2.17826372		0.06339782		0.5070768658435458		-0.11694621413827026		0.01351829457401443
C		-1.93160722		0.82076562		-0.40593286		1.0337868293946504		0.6475056332839823		1.7165589986547427
C		-2.59736094		-0.34992179		-0.30630039		-2.8155343993634885		-0.8280331707525777		-0.5742963515138934
C		-1.92605807		-1.50646889		-0.0123091		0.6612886486354619		-2.0048362743478174		0.9005755083727596
C		-0.54921444		-1.49500699		0.19402781		0.290902577669125		1.952000876516865		-1.049217613315107
O		2.25805793		0.94038734		0.00517001		-0.47922672824558		-1.7716079105856877		0.5935498001344232
O		2.39529296		-1.38807534		0.13722026		-0.7367528906878739		1.416576878841826		0.2807865724346991
H		0.84720669		2.00772387		-0.08033458		0.7985445205568752		0.39829045884018177		0.4158535614240306
H		-2.47524733		1.72574285		-0.43197232		-0.7968878045490332		1.5505870930258574		-0.5893228037573472
H		-3.7030915		-0.34565372		-0.50188207		0.6044089570152994		-0.15346986527496437		0.09005921176989291
H		-2.35399583		-2.52855058		0.13219402		-0.4057498460625291		0.7038850396586205		-0.39099629070446906
H		-0.17792918		-2.47281147		0.11423481		1.6026499772127036		-1.6642275370357476		0.4908842640679719
H		3.3306965		-1.14660279		-0.02907141		0.05696407522463411		0.08730725725404198		0.09223405647892739
16
Lattice="50.0 0.0 0.0 0.0 50.0 0.0 0.0 0.0 50.0" Properties=species:S:1:pos:R:3:forces:R:3 Energy=-13472.447769103434
C		1.67618771		-0.1485441		0.07834778		-0.05964254761325159		-1.891477623240124		0.8658769804984137
C		0.15739654		-0.29388036		-0.00797359		1.8269955396419555		2.3680071614663567		-0.18080398247629803
C		-0.63096755		0.97212569		-0.10299537		0.8515802073210496		0.8348057649089142		0.26509811255933263
O		-0.03638636		2.26166754		-0.26692822		0.20298859150029844		-3.2085982169326703		0.5024987596240977
C		-2.03710128		0.91244865		0.00313273		0.3845885875032398		-0.8468156447031772		-1.076726411262565
C		-2.63969173		-0.40580012		-0.0122381		-0.6407087164921095		1.0346491773818476		-0.4950201919724585
C		-1.91706642		-1.61653465		-0.06895046		2.1257258921887816		1.2653695328923642		0.10560317564978988
C		-0.402409		-1.55290414		-0.02091257		-5.062426302978874		-0.6600196549784526		-0.1078109819008514
O		2.36629598		0.8544288		0.01456339		-0.48851653520270755		1.333489573142305		-0.4953091325413351
O		2.30611259		-1.34171683		0.38090098		-0.0862541848372378		0.22999237337248765		-0.5218277986764213
H		0.96000141		2.05111196		-0.22191137		-0.7136020096884759		0.3647752040447501		-0.09271336152297406
H		-2.57544222		1.88285574		-0.22089572		0.13091671432942303		-0.9692261214630042		0.5916220384354354
H		-3.77356376		-0.43046452		-0.12154464		1.0627314855917511		-0.09845005823136288		0.27287827060720987
H		-2.52876669		-2.52577852		-0.22663788		0.6127766121266067		-0.11173571939487767		0.24477256535889402
H		0.06719209		-2.5380435		-0.00318474		0.7751561210510451		0.17997552162825212		0.004297444602625192
H		3.29220769		-1.19010041		0.32238695		-0.9223095572856198		0.17525878152845312		0.1175644615950424
16
Lattice="50.0 0.0 0.0 0.0 50.0 0.0 0.0 0.0 50.0" Properties=species:S:1:pos:R:3:forces:R:3 Energy=-13472.315670304359
C		1.66687788		-0.14075782		0.18782638		1.246922999275716		2.4454129977525545		0.5482109162549034
C		0.26059084		-0.31059405		0.03856789		-4.116867905664899		2.0914368381976822		-1.5490377462843994
C		-0.65122101		0.95003142		-0.19667387		3.5002636408981616		-1.6007147593146613		1.1681666139414717
O		0.02837469		2.12608146		-0.19393292		-3.0141171485535283		-0.49275983237357845		-0.45228341871882577
C		-2.05941968		0.79784566		-0.26929316		2.953049129947249		1.2031176755644832		0.1654297628245309
C		-2.66627928		-0.40880361		-0.17753872		2.0158732487206277		-2.505051740133185		0.4241885635256858
C		-1.88538729		-1.59370259		0.0036914		1.346935773984772		-0.08313291706890932		-0.7909376548594366
C		-0.44542458		-1.5285156		-0.04365744		-0.5998859238247295		-0.6520013613593941		1.6323433900610609
O		2.20419129		1.01820795		0.34161723		-0.5684918291051401		-2.3929091179581827		-0.6709702402863552
O		2.36507529		-1.27768888		0.20899268		1.9079812256493631		-0.18766188583423024		-0.8156317119527989
H		0.96246709		1.8637411		-0.02392571		1.3608189080918314		-0.04022567967827257		0.3597156330546326
H		-2.56655907		1.71336634		-0.17754764		-1.300420199050331		1.6241493872546287		-0.3851945450870878
H		-3.70730006		-0.41126594		-0.23368039		-2.3418400679722042		-0.37885682731284576		0.12209186566092013
H		-2.27980777		-2.62342434		0.13837857		-0.3570224025340935		0.5155750301493378		-0.21523388149643288
H		0.15937857		-2.45790998		0.16705938		-0.5788706525007207		0.5015432348597509		-0.39745906693457644
H		3.3231449		-1.09040333		-0.08489211		-1.454328643095886		-0.047921094167240955		0.8566015717187705
16
Lattice="50.0 0.0 0.0 0.0 50.0 0.0 0.0 0.0 50.0" Properties=species:S:1:pos:R:3:forces:R:3 Energy=-13472.66752747926
C		1.61990305		-0.01037101		0.15051858		0.7433267385728617		-4.317168306006778		1.5504985442343278
C		0.17588288		-0.31929198		0.03540289		1.639874922437018		4.158245285275744		-0.7186340184531231
C		-0.53269779		0.88918075		-0.2356052		-2.720650564006788		0.5419155188380533		0.48258829131171244
O		-0.05817286		2.17098628		-0.20304714		0.28589669131219975		-1.4501073545677414		-0.09265988257803164
C		-1.96136265		0.7487101		-0.43685192		0.8063050353768987		0.18293244448500745		-0.23718025210512722
C		-2.60213209		-0.49661211		-0.28116434		-0.793192049499073		-0.16473196543715682		0.4076740082171459
C		-1.84879925		-1.65198307		0.07589487		-0.35353408408403497		-0.48625679266857696		0.4384798859644308
C		-0.45131588		-1.52979211		0.15192953		-0.505615245140619		-2.2126883130920696		-0.5674836995709125
O		2.22250301		1.02807106		0.35573037		-0.1911396627614875		1.167455755350237		-0.6488849272649354
O		2.30325616		-1.23537279		0.27362773		-0.23744543568115434		1.0214010543239174		-0.7188114759906197
H		0.91189727		2.08604138		0.06015836		-0.22026223929464647		0.07213183529568593		-0.15527688797133218
H		-2.46073582		1.69614074		-0.71803004		-0.27090474327264624		-0.34796173228721927		0.13828256482018358
H		-3.74147662		-0.62101088		-0.36324736		1.3610741157877442		0.4286388344978966		-0.012072460444257905
H		-2.35440661		-2.63708766		0.38769397		0.6001154719114824		1.1906801184768683		-0.8048464999977182
H		0.20182041		-2.42543258		0.09828161		-0.24484105954607036		0.13101523900106699		0.6863557213697976
H		3.25682099		-1.0290271		0.20183876		0.1009921078883147		0.08449827567093995		0.2519711398805221
16
Lattice="50.0 0.0 0.0 0.0 50.0 0.0 0.0 0.0 50.0" Properties=species:S:1:pos:R:3:forces:R:3 Energy=-13472.226886611938
C		1.63350674		-0.18991		0.01769043		2.210048818626785		2.68231407948067		1.3796324409681473
C		0.21624531		-0.24708701		0.15982044		-1.9474381454940883		0.12571876656926695		-0.9371252819171754
C		-0.57736298		0.99822833		-0.06116314		-0.12676597687095248		-2.2651466329391154		0.9774460924109707
O		-0.01161421		2.18860365		-0.07274205		-1.4966703920658189		1.1399553906210196		-0.1774987265685426
C		-1.99138166		0.84620958		-0.14448287		2.082042130233168		0.10438673534059897		-0.4817254805259534
C		-2.53651598		-0.41289245		-0.30726597		-4.131707798665803		0.9134283500366775		-0.12790055325673147
C		-1.89192281		-1.5387642		-0.03473135		5.370712057435354		-4.449576517257408		1.4288890175191387
C		-0.41964811		-1.50184002		0.25954281		-3.674869310811505		0.9024145155919678		-1.1556476557290067
O		2.23312319		0.91815629		-0.08955544		-0.07395886117434472		-1.711844109749191		-0.14124149313737425
O		2.22951894		-1.36553664		0.23618968		0.6056520339528366		-1.2599565380670645		-0.16161059482470352
H		0.92768529		2.13685859		0.14693392		1.3061767446748236		-0.6586281739687		-0.12468698288631481
H		-2.61168648		1.70151876		-0.14517004		-0.82515296961299		1.4381751735098323		-0.27765337474788354
H		-3.65348854		-0.591288		-0.51282858		1.1186086526824923		0.842374012637457		0.14855612725393993
H		-2.28414942		-2.60147471		-0.02079033		-0.2292531298027832		1.1663528549549236		-0.21091905623670137
H		0.08468946		-2.4607599		0.38738734		0.41672871350477636		0.042264461610078484		0.137276286480204
H		3.21520613		-1.44606902		0.28982677		-0.6041525151898878		0.9877675802069253		-0.27579076480201303
16
Lattice="50.0 0.0 0.0 0.0 50.0 0.0 0.0 0.0 50.0" Properties=species:S:1:pos:R:3:forces:R:3 Energy=-13472.680891372574
C		1.6044635		-0.08988837		0.216762		2.2888676817669		-0.6805932107860617		-0.8836206773655684
C		0.16847737		-0.20925364		-0.04758325		1.1697453226805852		1.2131699688635402		0.5076405544920642
C		-0.61510891		1.00213465		-0.12691402		-0.34301652396397875		-1.9562746155487034		-0.7022558344541864
O		-0.06083956		2.22212457		-0.17194471		0.6922651447859381		-0.06665024343908507		0.11426619908777941
C		-2.03024885		0.76221945		-0.24166306		0.4050968887136068		-0.5933133614913028		0.7224172938533642
C		-2.64930265		-0.54021575		-0.18312461		3.41165437702302		0.3178046981238611		0.29840587933280016
C		-1.78192055		-1.6811201		-0.09557142		-0.4394633329086849		-0.06097278494663253		-0.3764056404402336
C		-0.37824501		-1.47685009		-0.10056995		-3.2429487717104526		0.09257981842680528		0.31020832252716113
O		2.32470741		0.90301203		-0.03485858		-1.2178310188697115		-0.16302814682011546		0.6286029345513875
O		2.26119839		-1.26070118		0.63629945		-1.5828143794232377		1.2156124654075993		-0.293772031597662
H		0.97408516		2.13882815		-0.19248223		-1.382341509483919		-0.446754878519213		0.09814779934831315
H		-2.57105135		1.68589264		-0.17857336		-1.0896480042239718		0.7254866253386234		-0.28949654421570065
H		-3.69154518		-0.75713468		-0.13648795		-1.376530867849735		0.4170822401840834		-0.09185394459333647
H		-2.2169697		-2.74738802		-0.02430607		0.5971250218700133		1.4408810024356704		-0.22699888942933416
H		0.1952869		-2.34974437		-0.1097313		1.6122911511225155		-1.5114314550449957		0.19919204920794673
H		3.18124666		-0.9601274		0.71992636		0.49754882047111226		0.056401877815926635		-0.01447747030479469
16
Lattice="50.0 0.0 0.0 0.0 50.0 0.0 0.0 0.0 50.0" Properties=species:S:1:pos:R:3:forces:R:3 Energy=-13472.285584244417
C		1.56448461		-0.2028799		0.21119166		1.7732367044136221		1.8770092032183197		-0.48571223302728794
C		0.13490223		-0.25890661		0.16003311		-0.08027205062480061		-0.8567865882994465		-1.875810143566235
C		-0.5891514		0.96425523		-0.15965392		0.8960462531126339		0.2594445653259169		1.142300236668496
O		0.0124862		2.15357767		-0.32202022		-3.0627377884582665		0.060835025241343293		-0.242481661054922
C		-1.98273148		0.86396906		-0.09153295		1.7139412557218718		0.6877808838304514		-0.4062678204975342
C		-2.45836199		-0.40848607		0.0310498		-4.45239285219544		2.3785440562818922		-0.24065684632494833
C		-1.85041399		-1.57407257		-0.12239824		2.215464333133145		-2.995611479565069		0.16152106901398736
C		-0.46460454		-1.52792106		-0.08580773		1.1185840215145813		-0.5803006486352442		1.591552787604771
O		2.1319523		0.92380833		0.10275653		0.28281620123938994		-1.167409886870536		0.27267181102649457
O		2.35263494		-1.31369523		0.27390367		1.0219151206821766		1.6072732834250405		-0.20673324893164358
H		0.94607847		2.00455801		-0.24156815		2.5593720014392893		-0.5669966812174991		0.31652444303517635
H		-2.57659315		1.76199639		-0.21100893		-0.4956714523933201		0.31152256759912184		0.17244620040097997
H		-3.53139432		-0.44776091		0.14318817		-1.0206851049485002		-0.118075442629555		0.07400920337347805
H		-2.42643076		-2.49312266		-0.08266188		-0.08416531781661077		-0.5132787265288091		-0.19246084981187822
H		0.20483858		-2.43905894		0.05613307		-0.7755272340757084		0.8212456641981324		-0.4414358832240622
H		3.26981301		-0.83684928		0.14970476		-1.609923987899938		-1.2051957953740593		0.36053298673719036
16
Lattice="50.0 0.0 0.0 0.0 50.0 0.0 0.0 0.0 50.0" Properties=species:S:1:pos:R:3:forces:R:3 Energy=-13472.815840809524
C		1.67094552		-0.16961144		0.11003183		0.27374406387259065		3.0005090196364232		0.3412854002317792
C		0.15717524		-0.24055514		0.15681994		1.9788838679643719		-2.1085122025192438		0.13907215058902134
C		-0.57675984		0.91676021		-0.06758182		0.029937307690532176		2.5338896441286503		-0.6003484652764192
O		0.00233445		2.17792471		-0.21388004		-0.06529167254929714		-1.5963869756951936		0.5671249792632985
C		-1.98906925		0.79051912		-0.22286558		0.5833420579405961		0.9736952643321322		-0.1285004944592733
C		-2.64632678		-0.42909621		-0.24369096		0.5895224242037574		0.4929133786520382		0.3279897117660877
C		-1.90551677		-1.58496218		0.05532704		0.8231138791488094		-1.273808716092532		1.2747234117392978
C		-0.51404236		-1.50082857		0.32019418		-1.6413969640633175		2.3127886595734695		-1.0682104035011049
O		2.27935328		0.95835684		0.17608782		-1.0714543643104262		-2.3419683660180044		-0.22878380063885076
O		2.34158089		-1.31143011		-0.05610508		1.4866714748675796		-0.13843261439839707		-0.023372715776784337
H		1.01506592		2.09044281		-0.0051478		-1.215655248563553		-0.48500276283173904		-0.2470778164182882
H		-2.54783664		1.72910178		-0.30918114		-0.09098599160133303		0.14193455969500338		-0.24996202847874677
H		-3.72028622		-0.3567874		-0.41067089		-0.41939340478065873		-0.5627709703919842		0.013935893143127523
H		-2.37448561		-2.55882925		0.34818269		-0.062105098761663965		0.4928405135895541		-0.6193768395296287
H		0.03396413		-2.32300591		0.68826343		0.8771903484568636		-1.4673039721125472		0.30550145546335156
H		3.35612537		-1.12338467		-0.11023211		-2.076122576670726		0.025615540452370664		0.19599951046106995
16
Lattice="50.0 0.0 0.0 0.0 50.0 0.0 0.0 0.0 50.0" Properties=species:S:1:pos:R:3:forces:R:3 Energy=-13472.125825994792
C		1.64259657		-0.17018019		0.09806685		-0.9737853557855353		-1.264142756748622		0.20794814657896116
C		0.22205434		-0.25751423		0.03182928		-1.9727429424231058		1.6130828966179762		-0.5543291132445691
C		-0.54497174		0.97863102		-0.05081491		-0.7198744214434132		-0.6921936681191401		0.37976463240324376
O		0.04037465		2.17406462		-0.28320408		-0.8375898067917307		-1.1842060808150854		0.38370171119225677
C		-1.93325682		0.86395805		0.18353509		-0.848717283994443		-0.8092227746220709		-1.1415491660244292
C		-2.62122481		-0.43731069		0.04585598		1.5675375531577407		2.361233024648147		0.14061388686523715
C		-1.86347991		-1.55657393		-0.18730559		1.6324222200827883		-0.5071713281722567		-0.44498271998118255
C		-0.45032575		-1.44736208		-0.10534194		-1.0649365150514405		-0.8884566652281765		0.8980684771403324
O		2.18879157		0.88775155		-0.08954653		2.4085634850061486		1.907099491544625		-0.35623214827844385
O		2.19196991		-1.33947681		0.36852892		2.197694873812705		-1.3510041332992062		0.23145713082122382
H		0.96107646		1.79511617		-0.33696985		1.2402322690427914		1.0685332826311946		-0.1067882485008895
H		-2.37538612		1.87536696		0.13052071		-0.7552557828849615		-0.36480991393690027		0.3662784251961948
H		-3.66086597		-0.71603536		0.10238915		-1.1602514729796773		1.0228106873217129		0.08978765185812265
H		-2.34711662		-2.48117999		-0.52872555		0.04541519422018774		-0.3113924697811368		0.5144064123582205
H		0.16062432		-2.28128597		0.19500472		0.34244080255284826		-1.2174048842382328		-0.634397892456526
H		3.1943013		-1.38823572		0.31670514		-1.1011527650988402		0.6172452407751103		0.026252762650184898
16
Lattice="50.0 0.0 0.0 0.0 50.0 0.0 0.0 0.0 50.0" Properties=species:S:1:pos:R:3:forces:R:3 Energy=-13472.43751923095
C		1.69410594		-0.14814968		0.0910613		-3.185632301091885		2.9459553021668197		0.6152973216276441
C		0.14960624		-0.2450943		-0.05163656		2.8115279522122374		-1.8300710417747081		-0.021207795525801675
C		-0.60621007		0.93309318		-0.14365821		0.3224091838613434		0.46777956008064925		-0.7395071591965348
O		0.05254483		2.08466349		-0.31871303		-0.08795718070128007		0.6347026195985731		0.7963553290924187
C		-2.03430242		0.82101476		-0.13417531		1.4725238256713045		-2.8175962183792698		-0.007303835483452286
C		-2.70499396		-0.44291398		-0.06873278		2.661377123957764		0.6348730837355772		1.0825852353692598
C		-1.84881999		-1.6249812		0.05780734		-0.9113839631000651		0.22175754144847476		-1.1441546190843754
C		-0.45433205		-1.51390506		-0.02785053		-0.21323685427933203		-0.500176899238534		1.1692049796484167
O		2.17032601		0.99580056		0.26493832		1.0577857630478862		-0.460841849681803		-0.24873602366594116
O		2.38133572		-1.23204998		0.21843191		0.851911571091443		-2.184321023812098		-0.10212272477528545
H		1.07537846		1.93941651		-0.01661908		-1.4905148112367557		-0.4207789722532302		-0.5756758511830963
H		-2.55603455		1.71298711		-0.10742548		-1.5303992541086455		2.2953338518531288		-0.0695678798401327
H		-3.76481373		-0.312932		0.19060497		-0.26818112231320235		-0.8472767463371184		-0.439402037810251
H		-2.17403513		-2.68611743		0.0213261		-0.6589639600364636		0.47052534394900675		0.34118039638026726
H		0.16513207		-2.4441779		0.18157838		-0.47856348648416885		0.9299661995395049		-0.5606413770979011
H		3.33561028		-1.08797794		0.4203096		-0.3527025893343048		0.46016924910502677		-0.09630395845523497
16
Lattice="50.0 0.0 0.0 0.0 50.0 0.0 0.0 0.0 50.0" Properties=species:S:1:pos:R:3:forces:R:3 Energy=-13472.498359230327
C		1.59166896		-0.15739537		-0.04013734		0.0020206813658253907		-4.082694602736363		0.8267466421722748
C		0.16133982		-0.19705026		-0.00508048		0.19594124926432013		-2.766959422250201		-1.0457885330809846
C		-0.56979522		0.96649968		-0.11047966		0.05460801916754465		2.2283087930008842		1.7615278493729103
O		0.01983965		2.19773441		0.10777115		0.5024341220916048		-1.5857122697523065		-1.1937346404081437
C		-1.9561168		0.86598088		-0.08081032		-0.64357950739427		1.8059492608142929		0.14881709422084655
C		-2.56271459		-0.36166578		0.1001769		1.487224210616797		1.9520309070013329		-0.6930151355666935
C		-1.861019		-1.51885863		0.07321063		1.6768355582603667		-1.2820987238895483		-0.31919237390099275
C		-0.48284186		-1.48124737		-0.06072709		0.06828808755000998		0.530750452107694		0.3281104507687078
O		2.31552234		0.78341444		-0.12990803		1.5953349317196384		3.7794475933347105		-0.42162147132432354
O		2.1951491		-1.40032106		0.12046758		-1.6849528393496311		0.3198657458087055		-0.18055725942068857
H		1.00429126		1.95109093		-0.0141661		-0.5303929659295785		0.7325634324163827		0.2331659888003848
H		-2.45006424		1.87004054		-0.09783779		-0.26331171011000515		-0.7392096311432301		0.03886993700191909
H		-3.5687937		-0.47769615		0.106146		-3.9104070908200876		0.11392527081377132		0.2607368017551512
H		-2.41421508		-2.43276944		0.05555512		-0.36643418262333965		-1.1611696139046268		0.0989360995655898
H		0.07369821		-2.41736644		-0.19250191		0.300296051504141		0.15472934585042145		0.178066580404119
H		3.111033		-1.14270347		0.05822225		1.5160953332646017		0.00027346252808070604		-0.02106813320420197
16
Lattice="50.0 0.0 0.0 0.0 50.0 0.0 0.0 0.0 50.0" Properties=species:S:1:pos:R:3:forces:R:3 Energy=-13472.283687983017
C		1.68055521		-0.17375821		0.20215176		-1.357928833916254		-3.1309863324422564		-0.3036613169587694
C		0.15033285		-0.26902046		0.12743846		1.60613572455964		-3.386071592424427		0.962124323262897
C		-0.57079072		0.91911917		-0.00167882		-0.15275355594511025		-0.9759045104009421		-0.5741364288996904
O		-0.05131092		2.09739032		-0.09362065		2.332451016434559		2.358680227780144		0.14846901828015865
C		-1.94423421		0.85607489		-0.21064038		-1.5873704769999595		2.5009545330417193		0.4869538187250143
C		-2.66960517		-0.28835829		-0.29085062		0.498554995966967		-3.1068246479613837		-0.4231121969145942
C		-1.97113585		-1.58945419		-0.16609052		1.9853471069930413		2.9157687517396185		0.4838736371845791
C		-0.54284361		-1.5565893		0.12802599		-2.067709567300343		1.8433792258015738		-0.8069875604117266
O		2.16876541		0.90764383		0.04622239		1.8703045890285348		3.205770466296776		-0.2733705340109926
O		2.55010056		-1.28859192		0.2752528		0.3546345162203508		1.7829440070957376		-1.243405935892751
H		0.98412668		2.00060748		-0.05817891		-1.1867585691507134		-0.23017296765579331		0.05273713026962055
H		-2.42181893		1.89272418		-0.23793111		0.27468400775201657		-1.1327671005118802		-0.24218629272823983
H		-3.74300419		-0.26789513		-0.57921824		0.3036343203759859		-0.03368685021780951		0.3077520962924295
H		-2.522583		-2.47443254		-0.39391044		-0.42247929417002533		-1.1858643909068634		0.13609548166028726
H		0.06400972		-2.43718526		0.30892521		0.1291622964029361		-0.5783606484853945		-0.11967790836151798
H		3.46298782		-0.91520028		-0.1340542		-2.5799082762516266		-0.8468582221708811		1.4085326685032953
16
Lattice="50.0 0.0 0.0 0.0 50.0 0.0 0.0 0.0 50.0" Properties=species:S:1:pos:R:3:forces:R:3 Energy=-13471.793411066303
C		1.65165205		-0.11422179		0.1993092		-3.992110988773659		-2.97317027444947		0.42140555008411834
C		0.19296625		-0.21333638		0.30994543		-2.3474389021311795		0.03755322367096111		0.3296816518867044
C		-0.6240009		0.99358396		0.16807073		3.220998184492638		-0.37858171927876677		-1.3506473156079026
O		0.02755004		2.19311941		0.01141778		-4.842176250713027		0.3247990756355214		0.220099591311134
C		-1.94514979		0.84319752		-0.25290497		0.6356115045522824		-0.4926914410305272		1.06057438149426
C		-2.44987037		-0.46451655		-0.42421274		-1.7674314620959948		3.437702634130863		-0.3360345391693676
C		-1.76218957		-1.61804887		-0.19387043		-0.92680924485984		-0.6592064664829526		0.17592480008123637
C		-0.46415059		-1.48503206		0.16571041		3.087866876199911		0.7666261779106626		0.5484253462552977
O		2.12035338		0.9164913		-0.17406521		3.565598610824037		1.591677897482699		-0.40031700232112577
O		2.16847848		-1.40015455		0.26293634		-0.7955344787096147		1.4858337580482934		1.138318523529281
H		0.93276482		2.12549544		0.20429962		2.854315993262128		-0.6909488428314796		0.45317276328880624
H		-2.50319893		1.77720654		-0.30169333		-0.5754527308541489		0.0748760250801077		-0.5755369087703709
H		-3.45938118		-0.34020051		-0.81312334		-0.7160611155587046		-1.0348972374110805		-0.0428157575415477
H		-2.27772868		-2.56720569		-0.22488362		-0.09501861258236821		-0.7138632851877572		-0.35728501500699833
H		0.24904901		-2.3157114		0.18377201		-0.3135983219938254		-0.4381125267503262		0.27977741445922266
H		2.89195602		-1.28976027		-0.30672994		3.0072408875193033		-0.33759704995881107		-1.5647434839727474
16
Lattice="50.0 0.0 0.0 0.0 50.0 0.0 0.0 0.0 50.0" Properties=species:S:1:pos:R:3:forces:R:3 Energy=-13471.774133146608
C		1.68009822		-0.15313197		0.10810254		1.3242922744755155		2.0486595443588436		1.1101534257988415
C		0.22174421		-0.26201772		-0.1352294		0.9728820244145697		2.068447319630236		1.0037006548333411