24
Lattice="50.0 0.0 0.0 0.0 50.0 0.0 0.0 0.0 50.0" Properties=species:S:1:pos:R:3:forces:R:3 Energy=-15553.567553326011
N		0.38591969		0.11922268		0.48241368		1.1862716022193625		1.117879487837027		1.333792449090104
N		-0.35174643		-0.18224095		-0.45387158		-2.367693538307507		-0.8507972035762046		-1.8129148933930463
C		-1.78698787		-0.00656809		-0.22999749		2.6809141652526765		0.5149068004478695		1.239925433596184
C		-2.22668548		1.12291068		0.46074877		-2.4863305612810196		0.9678511469352964		-1.3016448154674507
C		-3.65117597		1.37091089		0.38628114		1.9456512802461987		0.8707798170422		2.4692396160745376
C		-4.50255833		0.28112		0.28710504		-0.6756563328369372		1.1461075775939613		-0.8231736830074324
C		-4.01628004		-0.91319331		-0.14473103		1.9668369128630865		-2.2933280314633495		-2.5629072168102973
C		-2.65053419		-1.00580402		-0.60369294		-0.5429241111708429		-2.41968252899062		0.06560637557145847
C		1.77831062		0.04151391		0.18929723		-0.5475462860978062		-0.5621903638849215		-1.7053920293080727
C		2.26907014		-0.30889904		-1.17524267		-1.7614339526868863		1.2394951337776472		2.044720511531458
C		3.61081903		-0.50327773		-1.31558685		1.6313868882775273		0.07579015508418642		-0.05369018677496989
C		4.4833719		-0.40832076		-0.17826156		0.3908313287281466		-0.19452652548234264		-0.30510457998540363
C		3.98198582		0.06199552		1.06669764		1.4413627757387144		-0.9418409935757256		-2.3763273540140277
C		2.65257908		0.30839676		1.25463873		-1.4727474602208765		0.4980227261986022		1.0285170450132595
H		-1.54699687		1.89404466		0.81078241		0.4053967821817841		0.2562932670731208		0.038940899448092724
H		-4.00934505		2.36533571		0.74659117		-0.03509627752735521		-0.3964462579926665		-0.2984801842130327
H		-5.57783641		0.37832558		0.23089976		-0.769230859639672		0.35647696871774287		0.5280182436638218
H		-4.71658456		-1.70250391		-0.46800966		0.06584985903713395		-0.1534639517377832		0.40226857243502556
H		-2.09975219		-1.92556442		-1.07421968		-1.4161156229416976		1.248536675017292		0.5684719801890364
H		1.58439028		-0.25346215		-2.061452		0.2107564596752514		-0.3092015813886196		0.8110169932248903
H		3.98207802		-0.61172732		-2.35952593		0.27693243743240936		-0.33788372795694		0.4906442258804803
H		5.5824692		-0.70682966		-0.27166222		-1.1496874273151712		0.5567504753209633		0.03979018623142874
H		4.70581706		0.23622465		1.81131479		1.0728444055024304		0.24201161198211535		1.530929158462138
H		2.31303018		0.71587125		2.27178099		-0.05057246712895011		-0.6315406769788509		-1.3522466445940566
24
Lattice="50.0 0.0 0.0 0.0 50.0 0.0 0.0 0.0 50.0" Properties=species:S:1:pos:R:3:forces:R:3 Energy=-15553.52211421865
N		0.33042743		0.27921216		0.52311473		3.382088233779214		0.2643486874212642		-0.30595957461767104
N		-0.38722078		-0.34408624		-0.27728124		-0.12449348166533557		0.3958875058621427		-0.12560687216138736
C		-1.70647109		0.03002855		-0.16185969		-1.6491894634061814		0.17347824119424432		-0.3218917236469627
C		-2.22274188		1.10789348		0.61778828		0.3801843906989795		-1.178997231577691		1.1566544997116734
C		-3.6087311		1.11021153		0.82120158		1.237604910184244		-0.20044448496084888		-1.4570098408538128
C		-4.47360988		0.24990135		0.14064208		1.195167413334039		-0.0583703657883707		-0.14276358618573623
C		-3.98930792		-0.71343917		-0.69825901		2.408174528525817		-1.5279696130801979		-1.0153796336557726
C		-2.54810189		-0.81644336		-0.87875642		-3.3201183750417793		1.2183739330050023		1.529459207385095
C		1.77571017		0.05778711		0.17789363		-2.040723114663197		2.791940671562317		3.045712252115214
C		2.1398121		-0.87470602		-0.70722238		0.4005752439187229		-3.0749636409147962		-2.253350308970185
C		3.5075762		-1.15917319		-0.92455324		0.18378718200696256		0.13109833705397758		-0.7284001479746754
C		4.45920173		-0.39177913		-0.21895962		-2.6628649699125377		0.43695897562350505		-0.25698833909118524
C		4.04502005		0.64944615		0.65802566		0.24903910530198997		-1.1078563508473762		-0.8212153766033523
C		2.68224639		0.90177749		0.86897074		1.1290747907401038		-2.3386694864459914		-1.1457465947155996
H		-1.4759049		1.58638656		1.31653195		-0.7267170010267369		0.21429548027888026		-0.8095109952820736
H		-4.04254035		1.84567311		1.40865493		-0.9550529155016947		1.8021929305747728		1.7772547729509856
H		-5.50871237		0.19486299		0.27884299		-2.155041147189921		0.5326974456580361		0.6719271020243255
H		-4.68332655		-1.49064866		-1.07754808		0.3019596580683506		0.2318577086876677		-0.2627375313607481
H		-2.04962038		-1.64576961		-1.26140809		0.7575675645462863		-1.892123021545867		-1.5092259627867444
H		1.25567116		-1.44458987		-1.1284377		1.0084795127845732		0.30503711423947627		-0.07106822135608055
H		3.90022243		-1.8786135		-1.72215721		-0.7230002657752992		0.5062024850937369		1.0051632525554546
H		5.4520465		-0.6142408		-0.46175592		2.2468070572123517		-0.10216936458592277		-0.014128571611107664
H		4.87453098		1.12745959		1.15144522		0.2584189522904582		0.8336816272018115		0.7150233154944462
H		2.34470987		1.41563512		1.71553363		-0.7817279120535354		1.6435124162902284		1.339788878635901
24
Lattice="50.0 0.0 0.0 0.0 50.0 0.0 0.0 0.0 50.0" Properties=species:S:1:pos:R:3:forces:R:3 Energy=-15553.67104276464
N		0.33352766		-0.2901157		-0.45991607		-0.20868805863547737		2.3008910855635856		2.2971461195998657
N		-0.37401427		0.41886758		0.41423991		2.244793060714644		-0.7824707551676109		-2.371641158619321
C		-1.72796391		0.32129144		0.19032952		0.5629079073442743		-2.507683932665602		0.22731019859537416
C		-2.55750347		1.36442968		0.5348207		1.1901220348331565		0.5151752236138306		-0.017035512223166786
C		-3.88462928		1.17609639		0.40165327		-2.756468653024679		-0.8401315993383701		0.42480449698964795
C		-4.43585439		-0.01032457		-0.0813831		1.753554961434991		-1.6035510460129212		-0.7683571987987371
C		-3.57721705		-1.13187835		-0.43032984		-1.8985699597807415		2.6128561400100434		0.680308898202805
C		-2.24727489		-0.96142147		-0.20939388		0.44774387904621116		0.8929507992196525		-0.6707300478326763
C		1.74272932		-0.11718647		-0.23113325		-1.6076058813249325		-0.10209541966012733		-0.037119170041865726
C		2.52309971		-0.71984702		-1.24658652		-0.15201081567515956		0.8899807637369739		-0.584514789496709
C		3.9033748		-0.69650251		-1.09189764		1.5220856950070298		-0.25514254415973414		0.14049263364199266
C		4.41888719		-0.24953034		0.14563418		-0.17512359292628618		0.14173920727977612		0.5479945322161363
C		3.61212593		0.37472453		1.14846592		1.0758327986614016		-1.067272670770364		-1.1248597242815153
C		2.28325568		0.54565236		0.92971853		-0.6577572384970748		-1.5985390918526274		-2.4025446868631883
H		-2.19761237		2.35189123		0.78241568		0.6236467219067836		0.42675128485174035		0.538265323735419
H		-4.56902654		1.85628658		0.89242785		-0.5041813409293495		0.9357865599434911		-0.32962318500170484
H		-5.46525194		-0.05969654		-0.32945856		-1.6269591915907298		-0.14682114686705705		0.0805086435341085
H		-3.93194466		-2.02641336		-0.90952366		-0.5712666664387788		-0.7441241919172538		-0.20024589295568762
H		-1.64214431		-1.76567298		-0.60138486		1.1247592969935607		-0.2653994458452584		0.35330736421071646
H		2.04662067		-0.98788777		-2.22586417		0.07247579747137825		-0.2245293963024918		0.8324682722163673
H		4.64274469		-1.07380807		-1.87491412		-0.9456768737458474		0.28020262349357755		0.7487065661678846
H		5.45844193		-0.43553725		0.39836802		0.6344872640010548		0.051470553449546104		-0.0889026267413876
H		3.92133268		0.56047254		2.15784054		1.0875040127524038		0.5340591018715707		0.743372195676063
H		1.66755498		1.03635495		1.63151089		-1.2356051575978335		0.5558980003697558		0.9808888509137031
24
Lattice="50.0 0.0 0.0 0.0 50.0 0.0 0.0 0.0 50.0" Properties=species:S:1:pos:R:3:forces:R:3 Energy=-15553.26896337787
N		0.44601182		0.35551619		0.25164537		-1.3839932375517041		-0.08964845233508495		-0.6233828753043802
N		-0.37328042		-0.35887272		-0.44002675		-0.16766024620513048		1.8520231716543964		1.204252817592949
C		-1.74524318		0.0359345		-0.14146994		0.8080984826487809		-1.3557843796461242		-1.258431462539081
C		-2.2105951		0.69921996		0.98295881		-0.13843153453508578		1.8469170122757042		2.1358163406581725
C		-3.59756898		0.93052895		1.07275293		-0.3456457854388366		-0.1551062695681408		0.05027632747133131
C		-4.5251023		0.30777744		0.16774813		0.6792379309082702		-0.518402060876358		2.24019736814984
C		-4.03682893		-0.60991674		-0.78518425		-0.6628195348565018		2.091221739710477		-1.6461839981224782
C		-2.67762458		-0.48041996		-1.08994559		1.0483714118555174		-1.6152865891040418		0.9113077041814597
C		1.81023975		0.13607065		0.0726165		-2.0743634793365566		-2.003225838196176		-2.2712946547249993
C		2.24520121		-1.00496112		-0.69291931		0.5400931723670771		2.437630834244242		2.5119691388173657
C		3.55849208		-1.31593205		-0.67132315		1.267617756884507		0.23787444994813015		-1.1045973233737585
C		4.48546625		-0.39013065		-0.1406021		-0.5295071180598444		-0.3295706830759488		1.9006146038276657
C		4.01172976		0.69926441		0.69828121		1.1174431202151216		-0.020383037066251757		-0.955755135186439
C		2.6080678		1.06329855		0.65467215		4.0118798921481345		-1.2106895228373968		0.6599125942444427
H		-1.60376862		1.13621918		1.88732945		-0.4410208043360089		-0.9611362997550852		-1.9153515498595566
H		-3.92626558		1.55005949		1.95237342		-0.17622078547266787		-0.47574015814564463		-0.6795618899016715
H		-5.56083023		0.27185754		0.53838543		-0.29832298696813936		0.27895841527066656		-0.5354941887902763
H		-4.76298436		-1.02350445		-1.53563816		0.5164215401413019		-0.25446336155896504		0.6058847702074612
H		-2.14391554		-1.09542083		-1.83134732		-0.3804686518601737		0.048368826064946614		-0.43503388787176434
H		1.52922662		-1.63783964		-1.05355339		-2.35211023654984		-1.9376486189341235		-1.2280591756223291
H		3.88579879		-2.25602917		-1.14490076		0.2655145284210096		0.10059307268374411		-0.055730562790711584
H		5.50570197		-0.82609231		-0.19519762		0.16307139277463142		0.9899665418632464		0.4827118585277669
H		4.81001819		1.19646889		1.35509164		-1.1312749351038613		-0.06537811303626662		-0.92917625381623
H		2.1353258		1.88803812		1.12538847		-0.3359098406679393		1.108909371842118		0.9351094342252199
24
Lattice="50.0 0.0 0.0 0.0 50.0 0.0 0.0 0.0 50.0" Properties=species:S:1:pos:R:3:forces:R:3 Energy=-15553.75969358989
N		0.42221707		0.2767319		0.73068429		1.019533610704177		-0.03507946251293581		0.37014505575965867
N		-0.35385426		-0.38215124		-0.00016058		-0.4983751730145979		-1.0713244207586285		0.21905901445550388
C		-1.72955784		-0.19057827		0.16023357		-1.6303676515778116		-2.8036349227372943		-1.3973419935858387
C		-2.23952607		1.04061709		0.43143201		-0.32307062585056906		4.187862747737872		-0.022167999697830825
C		-3.579636		1.39448831		0.13675203		-0.037301512675294496		-0.8480048313192723		0.716813317488145
C		-4.47104832		0.39624806		-0.2439899		-1.1353117212719543		-0.16807378243131046		-1.4057004441479686
C		-4.07521542		-0.90176654		-0.58485351		3.3241929050037076		-0.821174856018146		1.9362817176702196
C		-2.71222037		-1.2453206		-0.29642622		1.1028299470875356		1.2291324054876118		0.33046707246848417
C		1.8142687		0.06821067		0.35863167		-2.218389322889122		-0.6131099813574356		-0.25500930959594004
C		2.08725029		-0.45243102		-0.909378		1.3006998836479675		-0.8103337482811879		-1.9445519793952566
C		3.43776678		-0.50600918		-1.37632638		-1.427899759881828		0.4888475904407263		2.1467292850163653
C		4.44247213		-0.09567454		-0.47456098		0.8899065617008662		0.12074594459849355		-1.8706648519980222
C		4.13614179		0.27384405		0.83221176		-1.7146905265937529		-1.0105585067692109		-2.0554075587693315
C		2.81927448		0.31164379		1.2727123		0.6137394902458831		0.94961667790417		0.47772859787831734
H		-1.54654508		1.92840989		0.67575286		-0.5761039912750104		-1.3581702604994317		-0.1634303701925576
H		-3.98917433		2.40375621		0.24062545		0.2672059543210018		0.2953503803823384		0.21757523084366318
H		-5.525455		0.58798382		-0.48083198		-0.19175163672664142		0.5879057659825597		0.18417392733860885
H		-4.69835275		-1.74914221		-0.84624461		-0.7750405242546697		-0.035944124492942785		-0.31345068925254677
H		-2.32275625		-2.29567669		-0.33880752		-0.23906188821410224		0.5875715739987318		-0.3742514674003019
H		1.2758906		-0.88021043		-1.56884119		0.418988558883032		0.756126615512462		0.6826033506290861
H		3.68169128		-0.84209854		-2.36369208		0.17584854116263096		-0.3196290500552728		-0.9739078945603408
H		5.46840679		0.01939253		-0.94855083		-0.628907610271372		-0.24522189134053549		0.9574017724700418
H		4.90241245		0.51581335		1.45101385		2.7125228956609098		0.953469681621086		2.4069759830943567
H		2.63837412		0.66526748		2.29292751		-0.42919640392098396		-0.016369596514508426		0.12993023348348465
24
Lattice="50.0 0.0 0.0 0.0 50.0 0.0 0.0 0.0 50.0" Properties=species:S:1:pos:R:3:forces:R:3 Energy=-15553.38889098167
N		0.36100557		-0.42623257		-0.47886552		0.11029826706129961		0.36702754180188873		-0.7447736525659299
N		-0.29559517		0.56377805		-0.08631834		-1.544606450053231		1.1229684208248005		1.1022600363694612
C		-1.73157628		0.4809724		0.01661932		0.2570446462495622		-1.9797889991075228		-1.2469088582085437
C		-2.45000633		0.76326245		1.20386863		2.5033051383601896		0.6962831619012391		-0.9247595614507956
C		-3.81479039		0.54193079		1.17343653		-1.8955072103194748		0.42907314523730417		0.97743956180904
C		-4.54606032		-0.13501486		0.18801535		2.2971445255159297		0.128738681452517		-1.6392338435845202
C		-3.74326027		-0.48255288		-0.97407973		-3.4978366223948982		-1.0507936481069733		0.17767484713241552
C		-2.44404663		-0.12519384		-1.09179322		2.2003520060454083		0.33599031619566516		0.7961039780511892
C		1.77385162		-0.16235489		-0.36095919		-0.37359635032475697		-2.0889181855791437		-1.3844951168811641
C		2.70895915		-0.92627334		-1.14654393		0.4550029773353365		0.667831643282983		0.7037981363730891
C		4.05551687		-0.89576831		-0.78845937		-0.32630841601239713		0.3424171998261862		1.2225399942380815
C		4.40436632		-0.17671295		0.43628197		2.56159029779109		-1.7726879795852752		-4.089050678186898
C		3.53390367		0.51442611		1.16622145		-3.431316425351736		-0.04425480395906153		-0.9318372427036163
C		2.18631586		0.51986156		0.74913062		0.0868478525481614		0.5979762626917221		1.575205662531551
H		-1.81975542		1.18221201		2.05054673		-1.0828532471587216		-0.23041804520540457		-0.5254518199492711
H		-4.39076361		1.0453385		1.94807231		-0.29620964304578873		-0.22666922258700145		0.8047552772589415
H		-5.62789204		-0.32938714		0.19666213		0.07719258899323966		0.11029579880230228		0.2515989469925477
H		-4.24208769		-1.10647365		-1.78333743		0.49377356691261254		0.6980741923361866		0.5507135251899602
H		-1.85415951		-0.45069872		-1.95929516		0.08478305105275848		0.13650860650996768		-0.09107484892523739
H		2.49658998		-1.5187223		-2.02384527		-0.9257630629994033		-0.2999424734027715		-0.4898637932387577
H		4.77565037		-1.53279519		-1.37803387		-0.24825517596002117		0.8000470732215083		0.565163381847222
H		5.46726407		-0.02085222		0.51335122		1.0195689376610766		-0.3212045192044523		0.926640889027396
H		3.71823202		0.87507307		2.111408		1.0354180400595203		1.5010813251602593		2.5033127488254316
H		1.36427282		0.93892207		1.36602086		0.43993070803424444		0.08036455891513856		-0.08975751852953007
24
Lattice="50.0 0.0 0.0 0.0 50.0 0.0 0.0 0.0 50.0" Properties=species:S:1:pos:R:3:forces:R:3 Energy=-15553.883918523774
N		0.39975258		0.13925251		0.44444736		-1.5099314734834852		0.10917767747650559		-0.4341445947238463
N		-0.44625327		-0.41753287		-0.35648791		2.237187891945266		-0.19919703714800382		0.6129729415610206
C		-1.76974228		-0.12079891		-0.12144141		-0.8782588989144636		-0.3023423410570638		-0.2291368130975334
C		-2.17619682		1.15025253		0.3251156		1.541753039808177		0.39138391021117686		0.3087986895293657
C		-3.51331228		1.40783349		0.50714953		-1.1544541496596663		-1.0699962403077454		-0.8547601990846899
C		-4.4608577		0.38254471		0.17094084		0.8163011243617035		2.4084220229123634		0.7491461733797241
C		-4.08158491		-0.80751509		-0.38977877		-0.2920586484770059		0.2573248450678231		0.45086890062509805
C		-2.7399688		-1.08103581		-0.49306392		0.7021515505115486		0.586474484296475		0.3263657001899604
C		1.76649707		0.01037706		0.18139506		-0.7277237421652785		-0.3161786810872985		1.5645633010659417
C		2.28420373		-0.55776858		-0.97591626		-1.1965707728402164		-0.6180336952585742		-2.894554168501574
C		3.60465637		-0.50029059		-1.29748302		1.786722911620671		0.604458065084934		2.2989944342123767
C		4.48577952		-0.20712742		-0.24122477		1.2967807511587477		-0.07710326887077329		0.022434931623981056
C		4.01123769		0.17013837		1.00384548		-1.8825238080390099		0.8870178759209749		0.8623519466957698
C		2.62617279		0.41962875		1.24851176		0.6925477604411341		-0.7578141847577708		-1.5537448704585217
H		-1.28787831		1.80375027		0.51138367		-0.7944482390625335		0.20398052308485598		0.035992358387515876
H		-3.97081219		2.37502113		0.68229348		0.23419725826271243		0.6645470590443302		0.6345369891354388
H		-5.46409168		0.68765001		0.39985745		-1.2272534947479463		-0.19997006501273445		-0.2379346137611904
H		-4.85790906		-1.46687493		-0.70786221		-0.6377708197984586		-1.1440623679043498		-0.27500189894204946
H		-2.43618528		-2.06900128		-0.71956251		0.7167168496989987		-1.3511223011987041		-0.8178000774819654
H		1.70563138		-1.01584426		-1.82297027		-0.6367797623889627		0.6825080141253136		0.9203648263060251
H		4.0689837		-0.58138928		-2.2429888		0.14898323890460527		-0.8237770180660956		-1.7213863476108597
H		5.59441673		-0.30584519		-0.35873013		-0.5270791739594574		0.1684754915831282		-0.14594275519637737
H		4.64101968		0.40963985		1.83308031		1.1532908283409806		0.09959605031500458		0.6974479744597354
H		2.21350243		0.85744251		2.18013795		0.1382197270598762		-0.20376881845377132		-0.3204328283133453
24
Lattice="50.0 0.0 0.0 0.0 50.0 0.0 0.0 0.0 50.0" Properties=species:S:1:pos:R:3:forces:R:3 Energy=-15553.535351662927
N		0.36829713		0.12772612		0.50857702		2.426975925795396		0.24739750738050664		0.46473393416617687
N		-0.37492049		-0.46118317		-0.29584423		-1.104182912972517		-0.05646327575848556		0.12936232822584584
C		-1.76121882		-0.18593018		-0.03332362		0.9822400684485614		1.23952506141799		0.521352350287058
C		-2.30771293		0.63357653		0.97924046		-2.6554895034961		-0.9651037689830032		-1.4727251430457755
C		-3.73597176		0.91549902		1.00772381		2.165183789052693		0.923087521668345		2.845992046903898
C		-4.56768979		0.45086216		0.01268361		-0.6966642508060163		-0.8281694906401186		-1.245619449992744
C		-3.98693108		-0.46311966		-0.92821832		-0.14583425464461913		2.2251455134075386		1.0979258249921882
C		-2.61065792		-0.64743061		-0.97983358		-1.9027815809611466		-2.7441763118414073		-2.118408275592594
C		1.80817446		-0.04160944		0.23498361		-2.2268409502284015		0.3525110935737609		1.1267371437813698
C		2.3052346		-0.89713582		-0.74318347		0.3085641020804931		0.0659889042939843		-0.140494176303866
C		3.64500319		-0.88136497		-1.03878549		2.435218522450838		-0.9484435349715576		0.8625782551925887
C		4.56774815		-0.14033504		-0.24273436		-0.6106848140484205		-0.13912835490327335		-2.2375979314712002
C		3.9891778		0.78622221		0.56652345		0.33638894002373615		1.6263397614265218		2.9629547161021508
C		2.67250554		0.77845423		0.98032642		-2.1717960492183273		1.1647758431438706		-1.1450784164361938
H		-1.60681638		0.97379191		1.66197318		1.3610465021402116		1.110104677683644		2.065695313692322
H		-4.12553502		1.45111559		1.98176004		0.5202211677574003		-0.5321790598465315		-1.9469609487546016
H		-5.63674805		0.81445096		-0.0900179		0.8338466920222588		-0.6621678630591405		0.29210230580802143
H		-4.58010145		-0.87739525		-1.69827319		-1.029030854261206		-0.6640438941633092		-1.1649081006884783
H		-2.29428162		-1.36856629		-1.77032151		0.43190722078687915		0.48355183791780043		0.31174805334294164
H		1.69669729		-1.58604972		-1.27860048		-1.1814169481480872		-0.5540531824574911		-0.6085011761667078
H		4.13378474		-1.5894546		-1.72938907		-0.49893017133456313		-0.04685465201420114		-0.31302414324456834
H		5.62659602		-0.11831145		-0.50858556		0.3135398551088258		-0.066631268698043		0.09996731760585505
H		4.44654004		1.59337252		1.1306151		1.526760011905312		0.19987179745140268		-0.09125050669054836
H		2.22145449		1.67442984		1.54474065		0.5817594925467992		-1.430884759184678		-0.2965812188690138
24
Lattice="50.0 0.0 0.0 0.0 50.0 0.0 0.0 0.0 50.0" Properties=species:S:1:pos:R:3:forces:R:3 Energy=-15553.811604158644
N		0.40422189		0.34719214		0.42258957		-1.7477275047863872		-0.6189389806679125		-0.5107027383106437
N		-0.38325889		-0.38944355		-0.31988412		1.1472376802603075		0.7452563514660977		0.7278775969761128
C		-1.75609844		-0.23256206		-0.1067889		-1.1219958239357222		1.86164207981117		1.5039787012687034
C		-2.30400403		0.50360939		1.1041997		-0.02014726690994299		-2.0019748936830846		-3.0696917482288457
C		-3.67558684		0.69400152		1.18016762		-0.33098391561811547		0.0583646065173769		-0.3583863727404381
C		-4.47123897		0.37501898		0.03823114		-1.1978174493221247		0.44345553614863864		1.6490450188327743
C		-4.04985355		-0.35261856		-1.01395989		1.5113115387953748		0.44827748578819937		-1.654797553536396
C		-2.66811225		-0.61503534		-1.11934302		-0.008405244638954474		-0.5567531492682104		-0.10907689023411403
C		1.76966747		0.14068598		0.23937579		-0.042990849664171764		-1.1241702058461946		-1.461905375464732
C		2.25041265		-0.97051863		-0.53762526		-0.4952710287930635		1.29383282716292		1.5287943201176852
C		3.56744628		-1.22272856		-0.69219005		2.461816944204776		0.026628297972218253		0.2657225306635982
C		4.55210152		-0.27692726		-0.24456016		-1.8492319821049001		0.13238394003715653		-0.006407394668854513
C		4.08247904		0.88951133		0.40256408		-0.31120272237071595		-0.6240574299195292		-0.05559527134441969
C		2.69214397		1.06679911		0.71651418		1.34436364242129		0.5950944674681984		-0.5394177949989288
H		-1.53728703		0.86258713		1.74843047		0.6468528302012474		0.3161186715404256		1.25896887451369
H		-4.19296015		1.07860068		2.07363838		0.2605144013350781		0.41102317856622905		-0.019117385843301322
H		-5.49475676		0.67077122		-0.18894903		-0.6918614301736852		0.5609791686261		1.2861766991296595
H		-4.76047923		-0.32768602		-1.86818348		0.5528632759325217		-0.8280407812178197		-0.031099857678281072
H		-2.36974805		-1.04964093		-2.07133387		0.7884942841403162		-0.32432239311665945		-0.17471643303584933
H		1.56034791		-1.65847323		-0.91673338		-1.6000840677187773		-1.267120454118605		-0.6238563696553705
H		3.87134005		-2.20488254		-1.0892414		0.1585758703874694		0.17647208509183496		-0.36265388970272044
H		5.60020698		-0.42080052		-0.48281317		0.5620011306951253		-0.058198873210117755		0.07650091083129654
H		4.84842112		1.63375452		0.6370346		-0.10835538727595298		0.41039341256746936		0.3270737819898234
H		2.31043492		2.01200074		1.12952533		0.09204307493900793		-0.07634479344971454		0.3532865382754264
24
Lattice="50.0 0.0 0.0 0.0 50.0 0.0 0.0 0.0 50.0" Properties=species:S:1:pos:R:3:forces:R:3 Energy=-15553.383100120247
N		0.40190555		0.32443051		0.64957354		-0.1300686616755857		-1.4679882969195606		-3.039706772286427
N		-0.39405134		-0.11905401		-0.3207477		0.6588179213791207		1.4434223836058104		1.741685361027077
C		-1.83091881		0.14840487		-0.17177027		1.2474603598282628		-0.4867777495832038		-0.528566659959794
C		-2.36109395		0.57157273		1.07130733		-0.5066448690969483		-0.9001118356356961		-0.8915820981835629
C		-3.77801585		0.51632388		1.21893099		0.938317296746705		1.1203589054219214		1.0573902759656242
C		-4.60522541		0.10964089		0.17108129		-0.45991933788154565		-1.2610618552993127		-0.3432061171082122
C		-4.03861071		-0.3332957		-1.11194809		-1.4040104066436623		2.232446366411369		1.597426164155138
C		-2.67076161		-0.16706938		-1.33435143		0.6105816099690939		-0.4037903055289504		1.2649098710761715
C		1.83346726		0.01374815		0.33397784		-0.444013105571726		0.6044197556484128		-1.0616995476426117
C		2.29329026		-0.97463715		-0.6302771		-2.7140131584526186		-0.6160336341397892		0.6633250137303328
C		3.59065191		-1.2162074		-0.95483348		2.5684220787413		-0.6958955938165936		-0.2929349832651878
C		4.56584475		-0.36961178		-0.29787745		-2.143770613809487		-2.408402842483071		-1.967976168656548
C		4.16190845		0.61194934		0.5489265		1.2888429844894778		1.8434578501350518		0.896359002096422
C		2.83524241		0.89687517		0.82420712		-1.995147997828806		-0.685413617763749		0.7688439600418384
H		-1.60031967		0.77381631		1.85856968		-0.5725285124291083		0.10568879338376021		-0.09704767574437209
H		-4.1798897		0.91175478		2.19724719		-0.03809078991175759		-0.5388895875734974		-0.7272031966271512
H		-5.72212217		-0.00183591		0.43349399		1.3270175409409577		0.22516471588399556		-0.7804802585524406
H		-4.82824276		-0.41646129		-1.88257844		0.5556221210047402		-0.5724222230260352		-0.2955367339366378
H		-2.223421		-0.36087501		-2.33330608		0.0708323483556469		-0.017170340870896684		0.46994334904625806
H		1.56544207		-1.67159598		-1.06604976		-0.5186506351262155		0.1986353025378584		0.052820022634281344
H		3.971085		-2.14549217		-1.66956036		-1.1233434419262094		2.4050701271939707		1.6659129465544338
H		5.51061467		-0.65669068		-0.63813439		2.583467094349296		0.2088020099258547		0.10044364017027992
H		4.92232887		1.26843101		1.0107909		0.005477272403355489		-0.04991169362653622		-0.06775206397108684
H		2.52568557		1.73648719		1.48408659		0.19534279930158918		-0.28359668530317494		-0.18536743340794945
24
Lattice="50.0 0.0 0.0 0.0 50.0 0.0 0.0 0.0 50.0" Properties=species:S:1:pos:R:3:forces:R:3 Energy=-15553.08445796127
N		0.38354588		0.37188666		0.48391914		-0.43998459835568643		-0.7146776563906933		-2.3983881901337236
N		-0.45856483		0.10079134		-0.53210902		4.257253272884632		-0.07326378915628023		1.8471580789044446
C		-1.77254575		0.22494685		-0.23721826		-2.1271194815030943		0.5682936998985407		-1.1102135381898395
C		-2.2911044		0.85873128		0.90720541		-0.6056408239432237		-2.270392403217345		0.634953096464741
C		-3.55127026		0.41009064		1.30975076		-2.0648123454580856		1.358735903186323		-1.0218849359315216
C		-4.49751847		-0.09640644		0.31956009		1.7433206854569419		0.5487045680543721		-0.04960588662117782
C		-4.08216325		-0.34073819		-1.02791452		-0.8315019488189073		-0.8340104198690829		1.1035018277554374
C		-2.70809157		-0.29199508		-1.21642829		1.6145603553161358		-0.2545013624631116		-0.47187532735436644
C		1.79720175		0.09922631		0.2096873		-2.9381884110110534		-2.1259269010308777		-2.5346843721037327
C		2.27306743		-0.91448646		-0.69671833		-1.820759277596917		2.644511407384789		2.08313238080112
C		3.5694311		-1.21981899		-0.85918492		1.109734953054667		0.45030896578713814		0.03145919505064435
C		4.54356044		-0.46785453		-0.18990364		0.061818986406221875		-0.6366515157652256		-0.07131376170425383
C		4.05240156		0.55163185		0.64531433		3.2763198390427895		-1.9500818051464308		-1.5882705687809906
C		2.76377681		0.76963697		0.85560321		-2.4666393052208364		2.02373681335379		2.94769295650095
H		-1.60017394		1.2461447		1.62618948		0.7055547654482611		0.7485772396808362		0.624075221953135
H		-3.95529199		0.75417187		2.29869614		0.1863318541890991		-0.4686549692717071		-0.45726904478314795
H		-5.51422852		-0.27992308		0.60794245		-0.9761194031998983		-0.1600410392127051		0.3476922806800093
H		-4.78879592		-0.79620727		-1.81244215		0.8698220297071058		0.7281214403962255		0.9898654460884803
H		-2.24457909		-0.78787379		-2.09723034		-0.09481539259158692		0.4138162707320357		0.08826864413350737
H		1.5365557		-1.42080885		-1.18885768		-2.3594970158200153		-1.7983719628027595		-1.7884938874512653
H		3.68203032		-1.98181109		-1.58796964		1.153703953190661		-1.270370636997482		-0.7934146041853335
H		5.60289521		-0.8103669		-0.23464525		-0.2765837958490346		0.6732444324200327		-0.013763372123625685
H		4.77142753		1.12392308		1.11560498		1.8285246260908101		1.5544954783040261		1.6131120015053197
H		2.39982903		1.35366553		1.70742973		0.1947165300030757		0.8443982935476536		-0.011733589052747588
24
Lattice="50.0 0.0 0.0 0.0 50.0 0.0 0.0 0.0 50.0" Properties=species:S:1:pos:R:3:forces:R:3 Energy=-15553.155649288814
N		0.42872629		-0.075037		-0.64494363		-1.1333256983762168		-0.53184584488189		-0.1760122175873923
N		-0.35915896		0.21451624		0.29678741		1.0441097055862913		0.9190427650805729		0.39764788874787327
C		-1.7296892		0.25560322		0.10337635		-1.2751611677568893		-1.540623245674205		0.6402143962058289
C		-2.50666832		1.29245995		0.66612104		-0.08053872544063863		1.0509669404574118		0.3862876752905363
C		-3.9167796		1.28276205		0.32919657		1.5647071799966616		0.09997965890084176		0.5355294129030509
C		-4.47336328		0.04728877		-0.10958389		1.8480938061747505		0.8573819015163683		1.3932528597581768
C		-3.76829048		-1.1602301		-0.16499692		1.502935604732014		0.7274753736036708		-1.126141264921761
C		-2.36970787		-0.986139		-0.24784047		-0.4514831371609995		1.4179037223190856		0.07266163680505326
C		1.79655103		-0.14620541		-0.27439505		-2.46422000002694		0.781153938992528		1.3448469069641449
C		2.63027584		-0.5456477		-1.2749349		0.7345421019571906		-0.15106567816742672		-1.9540470632256635
C		3.99733079		-0.54438455		-1.1347546		1.199005607496971		0.14972140261099837		2.8669960567962316
C		4.42841845		-0.20250313		0.20369187		1.9483462076947984		0.767700436217194		-0.9695997541687271
C		3.59586461		0.2548523		1.25472518		0.2398814016232828		0.017378857334109786		-1.53207705316209
C		2.20061415		0.27902843		0.98069806		3.1515110372905433		-0.4703656270230536		1.3474277802782426
H		-1.92966284		2.03076907		1.3882529		-1.2909899584406672		-0.8032432115127562		-1.703379678316363
H		-4.49785421		2.24392296		0.45294312		0.14931136308506465		-1.0353345306301098		0.04363285411379335
H		-5.48849088		-0.02971347		-0.21423368		-3.3500099170967363		0.08790442166521184		-0.4482174762413265
H		-4.27141322		-2.12187267		-0.37828962		0.1443624009512656		0.1918090751703921		0.06850776260077358