24
Lattice="50.0 0.0 0.0 0.0 50.0 0.0 0.0 0.0 50.0" Properties=species:S:1:pos:R:3:forces:R:3 Energy=-15553.072674914209
N		0.41052852		0.25843967		0.3745182		-1.9705076767906988		0.18056389286674393		-0.4546813323347451
N		-0.30823529		-0.38023219		-0.48096134		-1.6155950186345849		1.037719228775981		1.5574032930911468
C		-1.74125471		-0.11721267		-0.1923738		1.7597522455566963		0.08435809912871582		0.057041259740363545
C		-2.16459871		0.97075286		0.57222982		-2.373837703438707		-0.24699014180182005		1.1615651524089512
C		-3.55214813		1.09922532		0.92453574		1.242420329221874		-1.3087133435931562		-4.3712483234371415
C		-4.53357233		0.42220807		0.08322438		0.5501438715821982		-0.5187949254334352		2.7423556108764293
C		-4.11748969		-0.752741		-0.54876009		2.302894797648804		-1.5004240997801543		-0.10954174567861377
C		-2.68307707		-1.02551366		-0.60899607		-1.9681505922923603		-0.07217600684732589		-1.2110639782961192
C		1.74593097		0.21380651		0.14616706		1.8736661520946671		-0.0676542592083171		1.6871890820012247
C		2.24156305		-0.24542742		-1.06248357		-0.0062147676229368145		-1.3184311363760106		-1.1190163267935536
C		3.57231959		-0.58279828		-1.26736505		1.4354275384472268		1.4032541423712888		-0.9556691574980316
C		4.44301259		-0.40198891		-0.19249434		0.32863732122051575		-0.9383538578331033		-0.4158263591529975
C		3.95059963		0.03066195		1.00539306		0.5484582049531997		1.6872016804065235		1.125568937366752
C		2.68626016		0.51114005		1.21781029		-1.3914111271696588		-1.042144045827282		-1.8141520567934024
H		-1.43453566		1.60818219		1.01418662		0.9014242809354712		0.7682850536451274		0.5455408256624644
H		-3.86507679		1.88806769		1.52449148		-0.6959619796992098		1.8399588873180672		1.5345388844016283
H		-5.59466528		0.60959958		0.34414165		0.07868043494801347		-0.011702530127031013		-0.47755576832644075
H		-4.71722099		-1.65450326		-0.8480551		-0.26425674477361316		1.1199953514404375		-0.1379181880857007
H		-2.25726161		-1.88816022		-1.12064688		-0.2724644772707177		-0.6126879604909522		-0.18538229438399595
H		1.49047125		-0.56789331		-1.79311548		-0.13462028553287483		0.4687685091855849		-0.3595840954188991
H		4.03316717		-0.56892532		-2.28880793		-0.5330007844043972		-0.9050549356543763		0.31444431776516496
H		5.51651526		-0.56211512		-0.10995832		0.5040718119363423		-0.2847170177776568		-1.0213580654797136
H		4.70861651		0.36240163		1.69235815		0.6224240595280369		-0.19886449067017423		1.106991174646745
H		2.51515371		1.01069742		2.14881446		-0.9219798390212246		0.4366039577043872		0.8003593594067347
24
Lattice="50.0 0.0 0.0 0.0 50.0 0.0 0.0 0.0 50.0" Properties=species:S:1:pos:R:3:forces:R:3 Energy=-15553.615630070546
N		0.38466713		0.04871646		0.16008649		0.061330631079184926		0.44031462515245634		0.03085272324617203
N		-0.38840738		-0.18485398		-0.80468768		-2.0601780863464474		0.3913070856498846		1.5913224681870815
C		-1.82004831		0.04738977		-0.31198923		0.5039912335644915		0.3694097202667		0.3508834310312
C		-2.23086079		0.42783269		1.05389938		-0.3469844045683962		-1.83439260332462		-1.5764454484570916
C		-3.6094141		0.35817163		1.46974952		2.9275511403296264		-0.1972481409813512		-2.9530813715804016
C		-4.55585675		0.16033903		0.47599487		-0.28116467885985474		0.8522010773030064		-1.2349422757908595
C		-4.14542308		0.16173066		-0.8939618		-1.561643247827959		-0.24405065102423346		0.31586176691645207
C		-2.83378923		-0.0419519		-1.28853367		0.19673633719383948		-0.041121863382558126		-0.0008745350159963461
C		1.76601901		-0.039084		-0.0142493		0.4237041676974571		-0.8870625616932392		-0.0757746770433906
C		2.45994126		-1.15332644		-0.52302689		-1.4254174112393745		-1.2337466099948962		-0.8165660508274183
C		3.83840524		-1.22850768		-0.60276333		1.107281452189245		0.7173016213931195		1.0407223286448117
C		4.64085775		-0.28777548		0.09424965		-1.2692068014581723		0.35614550210322465		-0.7787191043357735
C		3.93951433		0.83485152		0.60514607		0.8854952686519884		-0.7246892748383564		0.7552152622997551
C		2.55778752		0.94639668		0.55824051		0.11357956028795586		0.6592156710321302		0.0358543415719144
H		-1.46695025		0.42086818		1.8192042		0.6277110703003472		0.3756026335130978		0.35845358137605327
H		-3.75725264		0.39262186		2.49933765		-0.8438503400502433		0.16849374641529602		2.25700744605125
H		-5.62122702		0.11263365		0.71135471		-0.33549522457844794		0.05439106948609061		0.0599584847649116
H		-4.8782489		0.290065		-1.72981449		-0.023851763710518798		-0.46638879897977087		0.6512263280342281
H		-2.74306655		-0.32772972		-2.35678614		0.8235260269793033		0.33660522121837844		0.2958364731386278
H		1.85564235		-2.05711925		-0.76065533		0.12392989586094208		0.39667328639835964		-0.4514962497869228
H		4.37366729		-2.02314469		-1.105749		-0.07588672571745751		-0.8573958368952909		-0.19032981670004656
H		5.72049367		-0.49085617		0.1739712		-0.022302879767623164		0.44302425931091527		0.09381343370485269
H		4.40356723		1.5417616		1.28474741		0.7100531160488577		0.5574996433487196		-0.021910837963545076
H		2.08035958		1.8155168		1.00162377		-0.25890833605874397		0.3679111785229377		0.2631322985341357
24
Lattice="50.0 0.0 0.0 0.0 50.0 0.0 0.0 0.0 50.0" Properties=species:S:1:pos:R:3:forces:R:3 Energy=-15553.611676971
N		0.2975053		0.26174434		0.60526372		1.736103856103146		-0.40095309323356626		-1.230151590765265
N		-0.3982991		-0.37423088		-0.25145905		-0.11257400185685053		0.5965027120703079		0.4539192573693154
C		-1.81610996		-0.18247588		-0.13418606		1.585348407238448		-0.6539222839240768		0.43936655658716406
C		-2.46150778		0.23675188		0.98815988		0.9109891959266776		1.0085080006071674		1.9130240330471238
C		-3.79427111		0.53679497		1.09615032		-0.4745427954216207		0.29639116292621837		1.8074184405603988
C		-4.58594832		0.35420386		0.00214021		1.754582374242635		-1.5246559239542012		-2.725488917284269
C		-3.92464109		-0.20445671		-1.18802288		-3.337128227655786		1.7589176140611567		-0.3345843341643033
C		-2.59158996		-0.47291462		-1.23022251		0.47044265727259577		-0.30290171025233686		-0.2923099995182354
C		1.77000273		0.1173065		0.30925888		-0.18673685435291323		1.2940025199689875		0.8442024783338643
C		2.31977569		-0.87704921		-0.50703294		-1.0606359851250686		-0.4356591801510914		0.06208828374724456
C		3.64088934		-1.0679804		-0.81794872		2.2746299925392846		0.4462868863289042		0.9669375311518423
C		4.67878176		-0.2345445		-0.18487846		-2.2709519266788054		-1.2645758333585306		-2.1388772903472533
C		4.12554502		0.81892646		0.54844634		0.4163932873914499		1.4891835968841884		0.17839948683638568
C		2.72745085		1.05750585		0.78457077		0.4652256833493352		-0.5620095124913037		0.3536228385638145
H		-1.89192567		0.46229559		1.86369571		1.0017265618560907		0.04594155045137129		0.8936875231082971
H		-4.10503927		0.8960102		2.1146932		-0.3284662400187624		-0.15453851857668932		-0.827101454403143
H		-5.62453256		0.52868742		-0.03012227		-1.7177476710502133		0.4548540590424968		-0.03890948056793904
H		-4.52852059		-0.14641981		-2.15193483		0.4720361755656933		-0.6753007492751323		0.9225119031013396
H		-2.02052939		-0.90373834		-2.01895109		0.1894360498326959		-0.3771279147293313		-1.5576991756384535
H		1.59715429		-1.56243318		-0.8861068		-0.8725765039040163		-0.9033105450300661		-0.7206148991426162
H		3.89268016		-1.90707965		-1.49517671		0.1478393551255238		0.18374712422031816		0.1451866966122535
H		5.72746552		-0.39835791		-0.56014503		-0.5655046186536049		0.4624560396440032		0.8563142252338299
H		4.81033858		1.64990335		0.84462984		-0.2175747166230388		-0.4176266455591851		0.2581614820237977
H		2.4904707		1.96633943		1.37804465		-0.2803139008367078		-0.364209355669609		-0.22910364586725657
24
Lattice="50.0 0.0 0.0 0.0 50.0 0.0 0.0 0.0 50.0" Properties=species:S:1:pos:R:3:forces:R:3 Energy=-15553.30603339008
N		0.35479281		0.14342135		0.54284816		-1.8064486204626928		-1.555268300480507		-0.7009965081449167
N		-0.4086798		-0.72761827		-0.03328308		-0.5293525433401358		1.503945893992864		1.2090480791821012
C		-1.8078204		-0.36452588		0.18887704		1.546666057920327		-4.226665013305613		-3.190633816573503
C		-2.09674102		0.8558056		0.62633447		-1.2123826970875125		2.7119160639019997		1.724874408950606
C		-3.35596421		1.41285168		0.44071463		-0.25556117117009614		-0.29264372870350125		-0.9316611735618058
C		-4.32680312		0.60606611		-0.17549912		1.546385859102066		-1.4452511578345926		0.2176340576830999
C		-4.04181351		-0.75252307		-0.58428241		-0.1873617866778032		2.4833834086161293		0.9788984571426577
C		-2.76623786		-1.20986533		-0.52212916		2.170080557793111		0.6686235430446307		1.6225720669112016
C		1.6520644		0.06472437		0.18050571		3.1208449761310457		-0.28893069584055964		0.44095344143420634
C		2.15428883		-0.28639847		-1.10988114		-0.7889112142226175		0.309119871731395		0.29007972182588554
C		3.52816912		-0.2412103		-1.37653626		-0.4814282610050233		0.08737945382971428		1.6343239622181793
C		4.48379937		0.05067718		-0.34325545		1.2643821264493018		-1.1738677265826487		-2.166785534875782
C		4.00123737		0.23489693		0.96113049		0.1284655788788734		-0.736084352454031		2.1071429358404674
C		2.6102329		0.25802462		1.22239964		-0.14985725969997718		0.7223411377788836		-0.10615750548294331
H		-1.35995423		1.46095956		1.14523205		0.6238974044612013		0.13356052824795284		-0.08063390767822369
H		-3.35029139		2.50073513		0.58437521		-0.9763034427613878		0.10245192881905617		0.2702519916119737
H		-5.29893747		0.89960082		-0.41807855		-2.0574081341087407		1.133739388868584		-0.23863626780324776
H		-4.84692145		-1.3487692		-0.91215826		-1.279250970071363		-0.9398420637423143		-0.9012620957505205
H		-2.41756319		-2.16094982		-0.92601134		0.0665316641630877		-0.3130805018250077		-0.06599157824123143
H		1.35590857		-0.57837985		-1.824401		0.5168219123194959		0.08748445768122629		-0.15653312895685526
H		3.85292194		-0.61363934		-2.32650672		0.52816397378879		-0.004886330061741447		-1.0731853337764383
H		5.59843497		-0.10443752		-0.7754852		-2.075429612957222		0.6244406785509292		1.725540736035764
H		4.57623353		0.12020474		1.96346948		-0.020335831612927558		0.6610222823519986		-1.8006665180731656
H		2.22895144		0.45333335		2.26710153		0.307791588436387		-0.2528889208510344		-0.8081763356513222
24
Lattice="50.0 0.0 0.0 0.0 50.0 0.0 0.0 0.0 50.0" Properties=species:S:1:pos:R:3:forces:R:3 Energy=-15553.404972866918
N		0.36865687		-0.07925569		0.65409733		2.0765349301894696		0.649756839755747		1.6604486325108145
N		-0.38214055		-0.17518374		-0.317851		-0.9348106720424164		-0.49093681741579037		-1.7471068404926802
C		-1.78342322		-0.00628517		-0.12071306		0.7068261245201429		0.4929998191390077		0.8541478651650988
C		-2.32891826		1.09452406		0.56882304		0.026040235266101115		0.2509821907755864		-1.1776974361052774
C		-3.72146736		1.31983772		0.53970631		1.452776056764494		-1.752302834214463		0.8865625335580275
C		-4.53738664		0.27167497		0.144326		-0.6987970322679711		-0.4877810454435616		-0.6949892285439441
C		-4.00707785		-0.85086893		-0.52429237		-1.9101658919723248		-0.6958967251019674		-0.837996915260105
C		-2.65812372		-0.91219887		-0.69804855		1.7554387572705885		-2.3144117455524724		-1.9399861116266706
C		1.81310453		-0.14557466		0.35264944		-0.49403530521045586		-0.04997864515183917		-2.31606604472338
C		2.29287059		-0.84548206		-0.86278746		-0.2501023592871583		-1.1525623319823273		1.5438354790709983
C		3.66558942		-0.80988168		-1.21198771		-3.391915864087451		0.3464642189847059		1.1080772086055761
C		4.45701046		-0.08556369		-0.40760695		1.9091031007857184		2.354629609077253		2.0395987198457823
C		4.0825637		0.61461385		0.75325262		-0.3725505798408199		-0.2512668633132801		1.707368333434008
C		2.71897181		0.639993		1.12635284		-0.2025561833772013		-1.0863252133929224		-1.2429230827263957
H		-1.61222054		1.8443867		0.86321534		0.3461120807010849		0.6229515984666567		0.6698294418310204
H		-4.14062211		2.08397878		1.14083828		-0.5902903098622435		1.521586798157192		0.5086318690118725
H		-5.60386049		0.36475054		0.31539142		-0.6651630439303547		-0.01949677782001803		-0.06541487981091455
H		-4.60917727		-1.67886313		-1.06945888		0.40638316018359755		1.3253730633839773		1.1419572515119902
H		-2.2366251		-1.74306654		-1.37138104		-0.28042342982971497		0.9357481990849074		0.9594326868262938
H		1.69681363		-1.69544874		-1.29359591		-0.2208698423844926		1.0605933048132397		0.02469143456817766
H		4.15394589		-1.31619943		-1.98265577		0.37684838439788215		-1.2656639756219223		-1.944486107733265
H		5.46033944		0.08591251		-0.71155347		1.695848043096281		-0.25149903392521766		-0.23764459332900248
H		4.82715682		0.92984183		1.5731308		-0.6136934160779326		0.19545736765671592		-1.5582499059272357
H		2.32653909		1.2669102		1.91925397		-0.1265368915827615		0.06157899964079264		0.6579797417612728
24
Lattice="50.0 0.0 0.0 0.0 50.0 0.0 0.0 0.0 50.0" Properties=species:S:1:pos:R:3:forces:R:3 Energy=-15553.432119055267
N		0.4225052		0.51508745		0.15641325		1.4221664056074983		-0.9917733074493021		-0.3688730796230275
N		-0.39518205		-0.2889166		-0.35204221		-1.5855860800110673		0.6157836200721832		-0.05864732501669764
C		-1.79732877		0.03060429		-0.09407694		1.571914444846843		0.6831301182367691		4.637235523456142
C		-2.32547836		0.43875879		1.25274047		-1.3168895029439196		-1.4604560446347292		-4.336164901425398
C		-3.72396591		0.36412519		1.34685164		0.38662443837748633		-0.0033041246223816795		-0.20047564673069038
C		-4.5341092		0.10987926		0.20303374		-0.563746498338622		-0.5922868228587199		1.1992466741257115
C		-4.07352143		-0.04728859		-1.09074347		1.9922034676891003		0.10671949720340101		1.617107598601395
C		-2.66411669		-0.1724918		-1.09473863		-0.7851810578128817		0.515951233958183		-4.922231197390186
C		1.82019567		0.11222691		-0.08097994		-0.6951217946209263		0.007029807312684688		1.024750276095063
C		2.32169999		-1.11561382		-0.61173355		-1.4047282072133271		0.7765151547393954		-0.04648616151472269
C		3.66614728		-1.37806868		-0.6529298		1.613574080158447		0.8556063491222166		1.060065200231933
C		4.51840452		-0.3840746		-0.05544301		-2.222754953146549		0.27358779222482127		-0.8476749073666273
C		4.06066748		0.84934041		0.47319865		1.3973666761758121		-1.8841284334975958		0.6814648147444988
C		2.70373781		1.00002655		0.54724742		-0.9664741155250909		0.8147028238167986		-0.576395348680822
H		-1.69156096		0.72583615		2.02099559		1.5892494391616874		0.4552331939089014		1.9191216612118116
H		-4.24790496		0.45462729		2.31919885		0.22608141699119652		0.12469711303261641		-0.14306116566110344
H		-5.53091437		-0.22590738		0.43948634		-1.235934464485729		0.4836870265199675		0.05246978696697076
H		-4.7095714		-0.09507939		-1.95988962		-0.30024694343450636		-0.2781921236961162		-0.5829943419543453
H		-2.12178254		-0.17524371		-2.0879743		-0.5127843033984038		-0.711790359006488		0.4440218987444041
H		1.63819224		-1.88476769		-0.92535975		-0.831072420331307		-0.41222804891137		-0.41441888588182474
H		4.04780622		-2.37346831		-0.99371669		-0.06955193900077485		0.6583287947211471		0.12979098253838453
H		5.52939456		-0.54093274		0.04422185		3.043626264730084		-0.7763409882138952		0.030856579900855382
H		4.77961776		1.43133802		1.09833326		-0.3875285925014509		0.11434230374019753		-0.5897199363456074
H		2.25672491		1.83538384		1.06650182		-0.3652056581294743		0.6251855271254401		0.29101184955181997
24
Lattice="50.0 0.0 0.0 0.0 50.0 0.0 0.0 0.0 50.0" Properties=species:S:1:pos:R:3:forces:R:3 Energy=-15553.550971866289
N		0.39450333		0.36978358		0.07888826		-0.6727657958627978		0.6693809386023781		-0.1372426564513652
N		-0.43148605		-0.0597391		-0.78970625		1.0371741549140678		-0.12603897175210982		0.23683382167043754
C		-1.7430799		0.09581547		-0.36527816		-2.0309610474845776		0.0956910074708946		1.1849295892336817
C		-2.17966136		0.98514951		0.71916988		0.6232886700859814		-0.0020353366536221187		-2.023752548504898
C		-3.50684269		0.94577639		1.1454697		0.5537073176654883		-2.3359206172538878		-1.5978958532735072
C		-4.40416104		-0.0044292		0.56739967		0.12327087070865131		0.3170884916381319		-1.7729311030965138
C		-4.07384072		-0.76060365		-0.62663666		1.6329066159110173		0.9268117645408996		2.6257221457219475
C		-2.6990645		-0.79165783		-0.95201492		0.9908610286394712		-0.6535812013838813		-0.6434224129935016
C		1.77106604		0.18125373		-0.09187062		-1.785813923822837		0.06841412302506183		1.8007235451404164
C		2.3568115		-0.61956244		-1.03360467		2.0445712847062434		-0.18254791030204626		-0.7197079682272799
C		3.71420258		-0.89419397		-0.96486012		2.7541193332577696		0.33066360759114766		-0.6473862312549857
C		4.46962321		-0.41939303		0.15193593		0.9574856418538892		0.34826054589208527		-1.2019030350274778
C		3.82594687		0.32246257		1.11599811		0.2091524512814151		0.8621486238608637		3.600572863797211
C		2.47175949		0.62691504		1.04141813		1.3940880054743403		-0.913773032121244		-1.6732391506350497
H		-1.46497826		1.79172063		0.98296728		-0.18105780177652486		-0.4189871704873459		0.4207632885241845
H		-3.83030246		1.51300952		1.96743177		-0.624483667395133		1.2387974906564603		1.4335710477267876
H		-5.43137291		-0.03048304		0.93584967		-0.35817816480959963		-0.06234518837121809		0.1427298533127725
H		-4.74827182		-1.4568993		-1.09244944		-0.71367256075815		-0.4572232277255096		-0.26518095350193105
H		-2.20783778		-1.62799659		-1.57832905		-0.9469194364627601		1.273486865403691		0.26957635713351324
H		1.89885135		-0.83991498		-1.94727599		-1.525888973589562		-0.7053905233808128		-1.576510600210209
H		4.35004309		-1.25374803		-1.87634069		-1.3520038810372552		0.08359463576759993		1.359622985185556
H		5.58944923		-0.29136573		0.186171		-0.6549262482712463		-1.023710984790994		-0.26299099070653786
H		4.34545304		0.61570834		2.1332416		-0.4619553430219796		-0.2516432213883125		-1.9799383287768624
H		1.98001396		1.23317414		1.74077464		-1.0119984787838485		0.918859239739708		1.4270563866356736
24
Lattice="50.0 0.0 0.0 0.0 50.0 0.0 0.0 0.0 50.0" Properties=species:S:1:pos:R:3:forces:R:3 Energy=-15553.2153815153
N		0.4267226		0.4009301		0.70874252		-1.052616714486824		0.34398248740700166		0.257187908115533
N		-0.36704716		-0.19563875		-0.06608188		-1.4450531828941804		0.7114902598500611		-0.650577792982676
C		-1.74386613		0.19045977		-0.03717181		2.280573868737263		-3.4497071146085694		-4.868707772363724
C		-2.32611196		0.79497196		0.97017851		-2.5909514212719293		0.5384148076709457		2.306587158842643
C		-3.71624449		0.72966655		1.01374642		-1.2445263712113577		1.5912148932324472		0.4179407829386595
C		-4.4816016		0.22819649		-0.03139724		1.0441955804305738		-2.1984508809747667		-1.1646449739949492
C		-3.87548294		-0.619617		-1.07320707		0.6014870011610064		3.1440041360824975		0.9032557291115001
C		-2.47414197		-0.4332516		-1.16786972		-0.08987815468802526		-1.5042967981469864		1.9459707655201672
C		1.72438962		0.06992079		0.36585341		1.1168409164418323		0.1760629711630252		0.5924476196479844
C		2.01070758		-0.77189655		-0.68629014		2.7097592683368843		-2.4986241880158517		-2.9871729134296503
C		3.38319224		-1.01969737		-1.16931635		-1.809996588505187		2.083032004935228		3.020710022601621
C		4.48683314		-0.39777813		-0.51519647		-2.2592134525301253		0.8077052067152042		0.5756809419672784
C		4.14766942		0.43244848		0.58961652		-0.33422767073918713		0.11036943519572302		0.6298581985177241
C		2.79717079		0.65672096		1.0492815		2.521977569097157		-0.6664422191557281		-0.41806923525064627
H		-1.75804301		1.03350355		1.82678573		0.9520188595512723		0.7979414940305868		1.3091166468289097
H		-4.25263481		1.19891796		1.86896753		0.14062967343840768		-0.1264140956976436		-0.23862438930682306
H		-5.54899599		0.28937213		0.00694951		-1.170833156411602		0.013833151862363087		0.19934091607872403
H		-4.51632159		-1.14046654		-1.80883939		0.2953996427181604		-0.02057998356541481		0.10404806963733844
H		-1.8455391		-1.15327407		-1.73558706		-0.11533068720244634		0.5852963534238055		-0.3172317535041027
H		1.24201858		-1.38976713		-1.24786656		0.4387158618089893		1.0477378406241369		0.7410435475782565
H		3.41623201		-1.66786196		-1.98441875		0.6071306239363704		-1.4208881045571866		-1.8197309391921486
H		5.53574603		-0.39090026		-0.77426354		0.5646176909205592		-0.5526522397882487		-0.5675383612232912
H		5.01017083		0.88937005		1.14925074		-0.7076154531786686		-0.14969399465171535		-0.21952880641799827
H		2.69227235		1.14482034		2.01202989		-0.4531037034589431		0.6366646283911491		0.24863857885760854
24
Lattice="50.0 0.0 0.0 0.0 50.0 0.0 0.0 0.0 50.0" Properties=species:S:1:pos:R:3:forces:R:3 Energy=-15552.985028736559
N		0.45899788		0.54219374		0.28600579		2.9625297127560457		1.799317357420805		2.542445709676755
N		-0.37339154		-0.02791163		-0.37406151		-2.705457092904513		-2.3931121836827765		-2.4673511408312576
C		-1.80813333		0.16797212		-0.17214318		0.30247747823716836		-0.8222708658570915		1.1525143551980663
C		-2.47051628		0.98504125		0.7950873		1.6499576575970423		1.3309149733198258		-0.5037758779669732
C		-3.8639235		1.02756351		0.94187282		1.5130918220192713		-0.5217725713813557		0.4999424660558487
C		-4.65156205		0.12505965		0.19210129		-0.9198090566551232		0.8132066474879088		0.895979558697643
C		-4.0346435		-0.75357745		-0.72535693		-0.5780482080339807		0.20921523761966004		-0.6242130845025492
C		-2.63507599		-0.77474006		-0.81820539		-0.14245952753050092		-0.7702795611811684		-1.9477477577320674
C		1.88651357		0.14091591		0.09786908		-2.6040234751880487		-2.15828274258437		-0.9603425487991896
C		2.2689759		-1.12734363		-0.50612048		-0.5822050132958198		0.2702185158493222		1.3774617100241082
C		3.63589404		-1.51361576		-0.44925918		-2.1263231594440763		0.35814443193663587		-0.6961442194885136
C		4.58353364		-0.60228767		-0.07436721		1.0712471848208367		2.8480511405503695		1.2918824397564568
C		4.17853698		0.77185461		0.21012935		1.3748102856403368		-0.640339660349944		1.2060748555315508
C		2.80645955		1.03227156		0.58365515		3.331314552119918		0.04396174962518941		-2.0519138924247784
H		-1.82072149		1.73088986		1.34347967		-0.4645057744751099		-0.6730788019568985		-0.24146047031683343
H		-4.15388472		1.7119865		1.7749774		-0.761596431716763		-0.41197330401401905		-0.6183271095468835
H		-5.72565959		0.2287724		0.4966046		0.24788961651810207		-0.6115459793281812		-0.9689483394816785
H		-4.53338181		-1.33799658		-1.57362805		-0.08653165828618917		0.402271040694023		1.5441963076831724
H		-2.33858612		-1.56196636		-1.59273851		0.7132807246423215		1.1180799824584988		0.9481072346831695
H		1.44683413		-1.88160662		-0.69839956		0.6996136146195924		0.8218085815157141		-0.296572682806648
H		3.93232761		-2.43847355		-0.8892372		0.28801137220817397		-1.4712851710311377		-0.013965923627595203
H		5.63895304		-0.86497416		0.24809815		-0.6785661016624307		0.09895435439775765		-1.1427354730050276
H		5.10462201		1.50555348		0.23647782		-2.029622479777081		-0.8859704085089771		0.559603474189518
H		2.49845431		1.9680715		0.98161776		-0.4750759907871094		1.2457672884222721		0.5152904090337066
24
Lattice="50.0 0.0 0.0 0.0 50.0 0.0 0.0 0.0 50.0" Properties=species:S:1:pos:R:3:forces:R:3 Energy=-15553.720188584626
N		0.33652335		0.11779662		0.69984049		2.7953587474750763		-0.22810729198532884		-1.1986404594315516
N		-0.3555766		-0.36189955		-0.23289687		-1.6916927804963153		0.20365805533126552		0.20913892727899214
C		-1.72530788		-0.1038998		-0.06474211		0.2505383669546265		0.7134025435082532		-0.45137098564280764
C		-2.18793922		0.93841639		0.81198618		-0.3704566220360108		-1.5909299635844414		-0.7124479443410305
C		-3.56822448		1.17093511		0.83212372		0.050177648533500006		1.2604505498209704		-0.18322220780688311
C		-4.45472675		0.41374895		0.06382211		0.9739950035341223		-1.1955783270350344		-1.5174456766243982
C		-3.92157716		-0.63111036		-0.76517344		-2.2331838616309505		-0.20043651454116998		-0.8210298972241146
C		-2.58337981		-0.78126994		-0.98215485		1.2673698511214615		-1.1644920447812388		1.811253857931959
C		1.73072164		0.01683896		0.26574313		-0.19069835862158743		0.15958158308476209		-0.5446505554953599
C		2.14023684		-0.62249233		-0.97771376		0.7534336935242975		0.9251887299839587		3.1658238027293284
C		3.46604519		-0.94367874		-1.1777558		0.8002941048094924		0.25862124668411546		-0.009219821530140346
C		4.40201385		-0.3688213		-0.31693159		0.06575580808492265		1.0831693385765688		1.853251644726199
C		4.02947961		0.54592918		0.75699858		0.6432011438588022		-1.680267775240298		-1.1702565094033477
C		2.6813493		0.65239942		1.07824501		-0.5052137930991134		-0.006006816802410605		0.7079497994286839
H		-1.47474541		1.48116873		1.4463821		0.032992858063056366		0.06082715766578925		-0.1686383452548904
H		-3.88066834		2.12999592		1.28277759		-0.3563167889932278		-0.3013639334749293		0.3511590532859034
H		-5.47056122		0.66424733		-0.21279387		-0.8307601855681431		0.35046213007359095		0.7538637876545846
H		-4.57684343		-1.341685		-1.37325508		0.1781406281740393		1.0453256830969202		0.6900516821080078
H		-2.20516577		-1.68311943		-1.52794324		0.07090248804882142		0.832595541820918		-0.06354568784105113
H		1.39773663		-0.97358778		-1.58519017		-2.3912609380127066		-1.1504912055732437		-1.9262781724863596
H		3.8593883		-1.63988159		-1.95620977		-0.5380549046558956		0.3511202296287578		0.12645307362097669
H		5.41235283		-0.76666469		-0.34308358		0.7476270628109839		0.3159647138854662		-0.19113812009961417
H		4.78879659		0.9858874		1.41642017		0.17062344255350406		-0.00469725113813243		-0.06373265846009993
H		2.310921		1.11590341		2.03124007		0.30722738556724416		-0.037996379005109195		-0.6473285871229852
24
Lattice="50.0 0.0 0.0 0.0 50.0 0.0 0.0 0.0 50.0" Properties=species:S:1:pos:R:3:forces:R:3 Energy=-15552.899416401093
N		0.37543684		-0.52702531		-0.33708314		-1.189622880873006		0.6093005321274102		-0.45234373679807344
N		-0.29407109		0.54242148		-0.28356281		-1.3481691835745697		-0.5385346210764418		1.1955088558286717
C		-1.78545237		0.31392571		-0.09455546		3.354198141238729		0.21740240129178667		-1.4469995593797735
C		-2.44008127		1.22421671		0.66780456		-1.1993593912865905		0.516970059281399		0.9796500934294112
C		-3.77470748		1.03809742		0.99934814		-1.4526698187834837		-1.085870796627099		-1.4619116489563502
C		-4.52814581		0.04648511		0.30517548		3.698497337128327		-1.6606017159907125		-2.080840756588273
C		-3.8583323		-0.8787082		-0.67939771		2.6437713410620858		3.8157485869410195		3.374196129901395
C		-2.39688756		-0.70166771		-0.76700014		-4.032737400584563		-1.0409871522664016		0.1841174144919822
C		1.75806675		-0.34597618		-0.2043899		0.3821049533092252		0.621495685612661		3.041474302838837
C		2.6408909		-0.69224267		-1.19935553		-1.7821422342981006		-0.9209652817291915		-2.7447597465619045
C		3.99186086		-0.49562818		-1.01797858		3.3738901686298495		1.1242052242707197		-0.7480553057470232
C		4.46661112		0.01882134		0.23132473		1.4346569788414936		-0.42262939517030124		-0.5123037128027959
C		3.61715354		0.29033314		1.30521877		-2.1326858169186043		-1.2568048284377689		-2.378514334329799
C		2.20841187		0.10985924		1.09831543		1.1938465862380854		0.8005769261529382		-2.01097164630634
H		-1.93840737		2.0802796		1.02305226		1.0905221278634685		1.3008088469982877		0.7709610577747475
H		-4.3283849		1.70038779		1.65900911		-0.0027833219739421544		0.40063972718502844		0.4003329431604837
H		-5.54502569		-0.12642968		0.47588933		-2.155147025216494		-0.08433444497999126		0.4643250773476793
H		-4.36692498		-1.67281047		-1.15066203		-0.8892481536133247		-1.180432729872896		-0.8615749079101683
H		-1.72301877		-1.36002465		-1.24920095		0.630555995905098		-1.2284540970619044		-1.1404454942981794
H		2.01020488		-0.9771239		-2.14962784		1.847417246099166		0.15419028836981405		1.0615624564241342
H		4.87987544		-0.5148125		-1.83695715		-2.3773297242772613		-0.40909767943798875		1.3502391786982795
H		5.59270946		0.22082905		0.31707486		-1.3051743229895274		-0.31811595586783864		0.03669108137201393
H		4.00160255		0.57278276		2.23191017		0.7472340439877194		0.9777904659631627		1.9957269074078081
H		1.4855841		0.72668536		1.62463314		-0.5296256459137794		-0.39230009709775343		0.9839355052694244
24
Lattice="50.0 0.0 0.0 0.0 50.0 0.0 0.0 0.0 50.0" Properties=species:S:1:pos:R:3:forces:R:3 Energy=-15553.584701775995
N		0.43694564		-0.01181773		-0.50620578		-2.514506149112198		-0.4910403300274915		-1.1482946607538576
N		-0.37375264		0.43336332		0.35879688		1.051224513568197		0.05119590821402917		0.6286810960863033
C		-1.72771293		0.13045849		0.17610285		-0.07898459644737364		1.6856727482238563		1.6982706907242362
C		-2.5639861		0.7085557		1.18523153		-1.1204475056355134		-0.8130004450175058		-0.7497517195870725
C		-3.99613384		0.638482		1.06672736		2.2181824005098445		2.201345480291839		1.7092851936557578
C		-4.48033771		0.1859912		-0.13249311		-2.8948871263559033		-2.314254908262016		-0.8915739220756344
C		-3.69192802		-0.59978073		-1.06352086		-0.2609321541703785		0.7753977533224727		1.628988614707171
C		-2.28648235		-0.57933613		-0.85853637		-1.6987973040657316		-0.48406590427605967		-2.840915712321423
C		1.77886606		0.03896655		-0.29763093		0.7376949942939225		-1.9039105009200563		-0.17498382776056157
C		2.50632581		-0.84884783		-1.1552945		-0.5897967094848372		1.2635260005316609		-0.27632036062313053
C		3.87116438		-0.86495921		-0.9226478		1.7627349822887992		-1.0603622654866758		-1.157520858619741
C		4.47272049		-0.27965247		0.17334022		-1.7188395157021008		0.6361021224500669		1.7041383080036092
C		3.69295538		0.41458283		1.14271573		1.3506415563369087		0.1347682268065281		-0.37559281189917093
C		2.36986517		0.5935533		0.83487142		-0.4086963816626705		1.3535236600928071		-0.04971623836718406
H		-2.07644005		1.24008965		1.99142904		0.3111467751667762		0.1905108737819142		0.5537607966104308
H		-4.6170955		1.18012106		1.88642782		0.6601141687292257		-0.9333380470181263		-1.3844481171160896
H		-5.6396236		0.22440669		-0.16702472		1.51252386533957		-0.215626386099073		-0.6014503372304834
H		-4.19526111		-1.27234399		-1.80679515		0.4146735279350507		0.8045820363305655		0.09157132893814061
H		-1.70528021		-0.86959388		-1.75235617		0.4834986675052326		-0.5175364218771645		0.580494098434161