24
Lattice="50.0 0.0 0.0 0.0 50.0 0.0 0.0 0.0 50.0" Properties=species:S:1:pos:R:3:forces:R:3 Energy=-15553.642412412819
N		0.38289674		-0.26461132		0.38716128		-1.5227933654303936		1.2108712484060764		-0.26188269099466804
N		-0.38168198		0.62741334		-0.1605117		0.14930802065100574		-2.475279137308663		0.49932344726813993
C		-1.75335644		0.18506658		-0.13824441		1.4096504298746548		2.1840876190706613		-0.31793212199459897
C		-2.28521957		-1.00384176		0.32591486		-0.5885766696312752		-0.23152937881895858		-0.09814805645862539
C		-3.65417423		-1.03630717		0.51170598		-2.104222419803923		-0.2226740882894884		-0.03642774899023482
C		-4.51890545		0.04636981		0.11357509		1.197358147460369		-2.2438309539263046		1.3853130362064088
C		-3.92486556		1.1526536		-0.44414243		-2.2315093535895025		0.7276130818868976		0.6946362675073239
C		-2.58595968		1.24745901		-0.51804354		2.52227987940227		0.3675400140762121		-0.9992620566693053
C		1.73339399		-0.05494804		0.25291895		1.130069087739534		-0.8058125148628037		-1.4728991553050883
C		2.58348056		-0.76767109		1.17001252		-0.8847865183653136		0.6392869993096395		1.786378743756729
C		3.93495613		-0.80489534		0.90853638		1.3426186347322306		-0.17558335758660382		1.051951775797352
C		4.47459269		-0.27974358		-0.28461438		-0.14969260625602934		0.3602819442283356		0.40739581485932025
C		3.73194913		0.47872755		-1.16436725		-3.480683867869358		-0.7828300925399743		-1.908162745529793
C		2.26029968		0.48410345		-0.99098105		2.7612374836737343		-0.1575739115007352		2.2611066071810884
H		-1.69967385		-1.88630947		0.48058479		0.8211483736559873		-0.6298290422083178		0.5340266031281057
H		-4.1348612		-1.92277503		0.99860078		0.3134611793532855		0.3034074976585425		-0.36396798050849377
H		-5.56257683		-0.00228546		0.42332708		-0.42763924102603484		0.08043706402318553		-0.2540978535391084
H		-4.56112332		2.01383959		-0.51115272		-0.49515162676406704		0.991937395250563		-0.8149465643927862
H		-2.02010507		2.10037037		-0.94057012		-0.4022600363726597		0.13338013965289694		0.2985310920548529
H		2.20924965		-1.13341929		2.2380145		0.3456224398224868		0.5938497450246629		-2.2900288433589626
H		4.62033479		-1.15869741		1.73739523		-0.42425865179679795		-0.1284231042552941		-0.9497083634415089
H		5.48215108		-0.43743863		-0.60230192		1.3784262850714455		-0.2806660391203289		0.23726268167122602
H		4.13939776		0.69514946		-2.20636428		-0.26783078380176684		0.24150495040084807		1.1716376031564866
H		1.55571615		0.89662215		-1.69558021		-0.39177482072988123		0.2998339214289508		-0.5600995428259216
24
Lattice="50.0 0.0 0.0 0.0 50.0 0.0 0.0 0.0 50.0" Properties=species:S:1:pos:R:3:forces:R:3 Energy=-15553.229145848587
N		0.39134248		0.13438266		0.60309676		0.4003883247217366		0.36624248117454605		0.6957595824614276
N		-0.39828882		-0.353366		-0.23303391		2.2773629723140933		-1.2542571223539483		-1.2082479004683997
C		-1.68079109		-0.00320901		-0.24375163		-3.0356843842958185		-0.45545873107478363		1.6217086904827556
C		-2.17115161		1.14348943		0.41647384		1.1739297930120196		2.8888031764598265		0.6614973707869246
C		-3.5251287		1.32661281		0.58067215		-3.029239142989004		-1.5815087218357051		-0.7241969085904488
C		-4.41906267		0.24362689		0.0941778		0.1810199551385656		1.476359757263489		0.3770487247531666
C		-3.97510403		-0.95329077		-0.49509355		2.6662421138635906		2.8561744894430023		1.1951028272236086
C		-2.57791991		-1.05888452		-0.60954827		-0.46021038675498244		2.54392769351641		0.4948101842694345
C		1.77577187		-0.16185657		0.36059098		-2.0223401387157303		1.308116024915799		1.0887292976563354
C		2.14896247		-0.67274176		-0.85440724		0.06495933175971731		-1.2535747515853077		-0.9788163875309959
C		3.44117603		-0.63814535		-1.31491755		2.0776248722250465		1.6966289899586282		1.1745665524112718
C		4.38469954		-0.03955943		-0.35842149		1.7285633762883235		-1.1558318495566835		-2.8835910876324977
C		3.97898829		0.45844951		0.83632363		-0.29041648491283567		0.4910909807589995		1.175368685163346
C		2.63839039		0.4787385		1.21059294		0.7142956933108543		0.8090748847704803		0.5836745529963633
H		-1.44944719		1.99877268		0.78176109		-0.9696544158211059		-1.6972231204681139		-0.6931370058546874
H		-4.1043536		2.21505693		1.01262024		1.22118219467923		-0.8121709043061484		-0.35019118722657
H		-5.50629688		0.43902217		0.14788886		0.08025297303963363		-0.05603832383444288		0.09870629436852463
H		-4.60480271		-1.66790582		-0.89361468		-1.7789024386758372		-1.9547771536682526		-0.7505095779433819
H		-2.00495468		-1.87665399		-0.87288631		0.8778785813406229		-2.6230693329424897		-1.2073791761454595
H		1.24881883		-1.05000602		-1.30924165		-0.40534381745746606		-0.43730468614932055		-1.395457272153117
H		3.77925182		-0.72725404		-2.36585679		-0.2630769169728829		-0.6347329586154155		0.2351629645954232
H		5.52057933		0.10798638		-0.57967455		-1.7703560404754721		-0.44066470655357953		-0.11348561217986948
H		4.70772359		0.94881947		1.4518295		0.6982725786530981		0.4755564271165299		0.6707218717247475
H		2.28562823		1.18680334		1.98111976		-0.13674874754158423		-0.5553626452776442		0.2321545168320983
24
Lattice="50.0 0.0 0.0 0.0 50.0 0.0 0.0 0.0 50.0" Properties=species:S:1:pos:R:3:forces:R:3 Energy=-15553.223737223017
N		0.31604457		0.38073678		0.37194186		2.4270166520688523		-1.1391573202118783		-1.0036250644015476
N		-0.42374573		-0.34773589		-0.36790101		0.9508327582589239		1.0015416995416018		0.733178131750846
C		-1.78751322		-0.05774838		-0.16350881		1.6836516554815315		0.36170551260505357		0.013436019274102975
C		-2.20698234		1.06425801		0.53822678		-2.4952667901367778		0.7278582108585713		-0.6270665461696658
C		-3.61430079		1.27540283		0.68560795		2.406431783407505		2.0944075935892355		2.8938963774787823
C		-4.50115212		0.35231704		0.27379822		-0.7732651261267053		-1.8246533161196636		-3.0529648198024093
C		-4.01792845		-0.7681377		-0.51993218		-2.0688555079619215		0.1446310298054765		0.6151068028862866
C		-2.63568033		-0.97096826		-0.733634		-2.476772588268244		-2.365553814867122		0.4097143842328875
C		1.79293796		0.12255458		0.12197284		-2.101013323152939		-0.8768458720605465		-0.3471627362809542
C		2.28666422		-0.57263402		-1.03126865		-1.3036208110610117		0.7133456707071892		0.9029113041372459
C		3.63746384		-0.74572235		-1.15037995		-0.826108648643524		-1.278792439540544		-4.301698647007114
C		4.49360364		-0.33660604		-0.20260225		1.7340928935071227		0.20196842920345887		1.7001353575526046
C		4.05184483		0.21241012		0.99271069		-2.169956270668182		-0.35088528222544807		0.9942331332284049
C		2.65176028		0.43184181		1.1897358		1.4890761247736792		-0.6431890082520653		-3.527844686843355
H		-1.54590046		1.89034964		0.69851687		0.9021678953804833		0.4627412264023213		0.6958990905168398
H		-3.97469566		2.10433026		1.39362684		0.4629149301292594		-0.5042057149869481		-1.2108204948304437
H		-5.55384033		0.67712716		0.1952875		-0.18145015211297766		-0.657513035122525		0.5040673382169096
H		-4.91015302		-1.42124627		-0.83729774		1.6272452011020473		0.25758555492441754		-0.05933432377095831
H		-2.22000218		-1.98114593		-1.03447933		-0.34525158390813593		1.0957325197627361		-0.36325167117863966
H		1.69446104		-1.02705374		-1.82302556		-0.8512512089655286		0.2953005524038295		-0.021055740487152808
H		3.94044437		-1.21456548		-2.17877555		0.10290120337863516		0.5759098729892819		1.8324668470860672
H		5.5110638		-0.62498182		-0.35704345		1.3671552374703877		0.05089004978660834		0.1626590392558877
H		4.61227543		0.17055735		1.90942948		1.1527949653928269		0.5778443709784501		0.4821882276658929
H		2.14704289		0.88499477		1.96938505		-0.7134691865011813		1.079333561250572		2.574932728911543
24
Lattice="50.0 0.0 0.0 0.0 50.0 0.0 0.0 0.0 50.0" Properties=species:S:1:pos:R:3:forces:R:3 Energy=-15553.24202193344
N		0.2876059		0.14909808		0.28106997		0.19955514039086852		0.45058937029364887		0.46411501822259293
N		-0.42055941		-0.37682974		-0.60041558		0.9343923021423667		-1.8208573908920613		-1.582622935084756
C		-1.76036326		-0.20688062		-0.37042512		0.5853072549010436		-0.17950593535400747		-1.5108140303412227
C		-2.09528185		1.07944067		-0.07590613		-0.7883898973535532		-0.5254545453185807		1.4238712012437258
C		-3.26323641		1.30019003		0.53486196		-3.454472499979441		-0.19692778153232096		0.14195800815547815
C		-4.24779687		0.28688644		0.45941463		0.02154095906838063		0.8457259083558497		0.7053824501170092
C		-3.96090859		-0.94842442		-0.04789499		-0.9978287695227852		-0.5938437800654194		-0.7411987907847769
C		-2.7293396		-1.18630809		-0.54685701		2.0079030861520173		-0.7761670273766448		-0.39366509574534697
C		1.66691548		0.07344254		0.08951702		0.17122209820448483		-0.05931956563903669		0.40764392631061575
C		2.34022716		0.28581812		-1.13825282		-0.47488572915606425		0.042016658691157664		-0.5315107787230007
C		3.76227944		0.25898056		-1.14313087		-2.0690693208975666		-0.32944104805652585		0.19616781487145138
C		4.36616338		-0.13546949		0.0285918		3.07400621353414		0.6110868317326128		0.5729060532115771
C		3.69356048		-0.38918587		1.22101161		2.070413390765745		-0.2214585735774215		0.8016358092627986
C		2.34856483		-0.21510434		1.29957183		-0.21822314883046592		0.21539159296195065		-0.7320573878998646
H		-1.4388997		1.86008841		-0.07992678		2.6429325443794887		2.1844778611025544		-0.19206639117086519
H		-3.44330705		2.25732145		0.98919811		-0.5600877671736217		0.8897208766333784		0.21095052653891755
H		-5.28910414		0.38311855		0.63886367		-1.3470362012727266		0.9067034241322273		1.0287448447498893
H		-4.71046298		-1.71824102		-0.19314761		-0.6508261615442839		-0.22892485135613647		0.10122638680481257
H		-2.48937009		-2.09527923		-1.07247003		0.4282077119263605		-0.8801097846300966		-0.04908292424611562
H		1.67961965		0.4761271		-2.04567011		0.8260297671997338		-0.07592395529066744		0.8243806616571335
H		4.35103341		0.50698567		-2.00330405		0.42725707225794607		0.24350218330619866		-0.9127622800618318
H		5.50555148		-0.03220644		0.12961527		-1.1921793287074425		-0.4721295580310928		-0.399271026148939
H		4.34882797		-0.61813356		2.10279386		-0.6721744421446842		0.05957785865869622		-0.3200835696652211
H		1.89441127		-0.27871367		2.27225648		-0.9635942229178777		-0.08872892301444953		0.4861525087259392
24
Lattice="50.0 0.0 0.0 0.0 50.0 0.0 0.0 0.0 50.0" Properties=species:S:1:pos:R:3:forces:R:3 Energy=-15554.14672621582
N		0.41808065		0.3951772		0.41227575		-0.6274630102711142		-1.9395019729087541		-1.1845753426455006
N		-0.36835946		-0.40389007		-0.21303374		-0.15456320116666275		-0.16640523934910612		-0.5522844177755821
C		-1.73937659		-0.14720219		-0.11939532		-0.2269336348320919		1.494815032630753		1.6521966256179452
C		-2.18564364		0.75056843		0.89116395		-1.3723942200363743		0.27024155293329744		-0.1226651188130532
C		-3.5617772		1.03755225		0.97663112		1.4161882823159315		-0.9663960568342999		-0.44678105234899734
C		-4.46316824		0.42450821		0.10240071		-1.1585915173819012		-0.5112621589279792		0.0005074843342663573
C		-4.08523733		-0.45904387		-0.94781393		1.4158316188908153		1.5881619653851076		1.8607691903011718
C		-2.70895212		-0.69822903		-0.98683814		0.7149273619259247		-0.33727015990785036		-0.9296848180138075
C		1.76066884		-0.01085893		0.17303659		-0.7027875900019266		-0.14653488024542763		-0.5430172365259303
C		2.22318743		-1.09071166		-0.64963367		0.7418242887523538		0.13818784538116052		0.14672303357191266
C		3.62630059		-1.16902114		-0.87590959		-0.9724096613489535		0.3221503251989969		0.032031933982152996
C		4.45758215		-0.22842744		-0.21973509		2.599633265184774		-2.1383607043079342		-0.7624229899484984
C		3.9825589		0.70190957		0.65896568		0.9678772179209557		1.3310924308573224		0.02069558036179041
C		2.63156218		0.87776324		0.76663955		-0.9269629968265494		1.1813724166420099		2.2278576672470574
H		-1.56314052		1.26234406		1.63670323		0.5583891936069497		-0.33341196256262745		-0.2614565563631891
H		-3.84441747		1.67265613		1.80075216		-0.7214167747843782		0.4849825539611982		0.4195448427545583
H		-5.51341265		0.55004558		0.37640832		-0.524925155185713		0.23688508946669487		-0.401810196170394
H		-4.74232481		-0.82968083		-1.71897261		-0.5720315181955808		-0.3783267686931662		-0.23887383773174212
H		-2.31051752		-1.26320773		-1.81857222		0.33971666737277995		-0.6567625301211452		-0.4769559813900862
H		1.51566118		-1.8464753		-1.04883302		0.1431604616636841		0.4618557899090867		-0.007458975845847827
H		4.0558348		-1.906866		-1.59061235		-0.1782847127930092		0.1338999138600876		0.4367043335702792
H		5.60442108		-0.36033072		-0.25603237		-1.447722502155683		0.19506897681907137		-0.35159423820037256
H		4.72088797		1.37426764		1.10468839		-0.04113477032023173		0.18430721332446548		0.44553226756252867
H		2.12838153		1.60168086		1.49268146		0.730072856243938		-0.4487888267771491		-0.9629821975306612
24
Lattice="50.0 0.0 0.0 0.0 50.0 0.0 0.0 0.0 50.0" Properties=species:S:1:pos:R:3:forces:R:3 Energy=-15553.393194298063
N		0.42241675		0.53923208		0.27045376		-3.1235717852583607		-0.38547299555522563		0.18745712318157556
N		-0.3352946		-0.28679728		-0.34526951		-2.660952326299909		1.0760330875946236		0.6764941010782857
C		-1.7703445		-0.02602902		-0.14937398		1.6386685094300042		-1.0745084234431395		-2.0952054583101267
C		-2.22937873		0.86393329		0.82336615		0.2940274964038871		-0.9907319592627352		-0.5255274103810648
C		-3.58992846		0.96291093		1.04195795		0.041772095362170865		-0.521841528367094		-0.9924839603522873
C		-4.40529233		0.20400001		0.19577193		-0.8605686809922511		0.8050075538972948		0.8955569721884727
C		-3.96843124		-0.58442459		-0.82706855		-1.0886476394211733		-0.07584132003631885		-1.008973164584042
C		-2.64533592		-0.70220069		-1.05710559		3.1041869018462225		-1.375404261883635		-1.7720578536320781
C		1.67772261		0.1027229		0.24633449		4.391676251963907		0.03023576134096099		-1.0029661420933818
C		2.10952366		-0.97188598		-0.54401791		-0.07747098803931506		-2.1955035740436886		-2.6736034906349184
C		3.47558467		-1.20212191		-0.85217478		-0.4000026078313392		-0.5750618203354445		0.4122343224029882
C		4.47573474		-0.42388504		-0.20705758		-0.8233675956049112		0.48163893719485906		0.2471062528188201
C		4.09172756		0.60743987		0.6793245		-2.467361476665809		-0.5615018738908499		-0.3574123874556738
C		2.7040773		0.89702589		0.8091109		0.3060703377401769		-0.9459155235376531		-0.028797177722009158
H		-1.35432612		1.32233342		1.23516251		0.35593662568557444		1.0965366065531832		1.2878367575715606
H		-4.04420183		1.65094524		1.71066672		-0.4419889789277169		0.8750159665463911		1.1205555433887098
H		-5.47053588		0.25935125		0.16270217		-1.353920381304568		0.5262219167564424		0.845988315140505
H		-4.74154013		-0.9082661		-1.52325828		-0.048243356232581636		-0.6295276575003298		-0.2863218489244922
H		-2.27167762		-1.30503178		-2.02145012		-0.3415403508173798		1.191588232099641		2.178417565355201
H		1.31645991		-1.57298301		-1.1799383		1.3726115810943278		1.0119328128101068		1.5028452047462362
H		3.72414277		-2.08639458		-1.53353411		-0.07564226523259558		1.1717827162167052		0.6379295597052254
H		5.52306226		-0.51387988		-0.43556864		0.9034711361310808		-0.5034701223836774		-0.13547980530663736
H		4.68608911		1.16449243		1.37606424		1.3131942106925212		0.5350509820340658		0.0381812927416602
H		2.30770046		1.72879691		1.35379176		0.04166313201185062		1.0337365386175799		0.8482256376554097
24
Lattice="50.0 0.0 0.0 0.0 50.0 0.0 0.0 0.0 50.0" Properties=species:S:1:pos:R:3:forces:R:3 Energy=-15553.3140619011
N		0.4422821		0.66717907		0.11047694		-0.5842994853212533		-0.32520227602714996		-0.31454263674855915
N		-0.42167436		-0.1884281		-0.30042521		1.6301011310281612		0.23296595697747507		-0.4975376104614993
C		-1.79887902		-0.03694008		-0.08625556		2.17321951475092		1.1307289870668862		-0.7026951845557137
C		-2.28380973		0.49937437		1.08691205		2.3844239634341893		0.8507347257703344		1.7219522474080633
C		-3.62230687		0.431771		1.31554079		-2.4265874321136267		-0.5013703024637497		-0.05506079042736989
C		-4.53600864		-0.01687218		0.32395901		2.1770832656788865		0.1989322649484763		-0.19925519550062878
C		-3.99449933		-0.33810352		-0.95592165		-2.496171509903429		1.0564391220765852		2.2152633242910484
C		-2.66702794		-0.296731		-1.13532177		1.1303548915626012		-0.7742794777304888		-0.9200983571784368
C		1.82583734		0.29323593		-0.09328819		-0.8236210035286385		-0.8443072764971266		-0.5714028834821947
C		2.19470301		-0.9473511		-0.69045731		-2.8957340991464293		0.43309131661879235		-1.0293578471562919
C		3.46944951		-1.37140642		-0.57155046		1.897215811188324		-0.5296418438634495		0.7621065899982765
C		4.41725743		-0.60288796		0.07462954		-0.42229453469966155		2.1378161446666453		1.3043642712398364
C		4.12560092		0.7249405		0.53384416		1.2898258143689825		-2.4577391746529145		-1.3699407191709523
C		2.84432099		1.15887818		0.37759651		-1.8715688518557994		0.48524861171228695		0.22086644852837126
H		-1.4725277		0.99135746		1.74689033		-1.2812261429119247		-0.8655726133108038		-0.4318360012303933
H		-4.11655616		0.65027093		2.2586913		0.22906770184560776		0.5310351246453875		0.6306179080682814
H		-5.54306089		0.03504603		0.66147458		-1.5414826626038427		-0.31986790553532823		-0.29671851577574104
H		-4.54050763		-0.41624283		-1.86015898		-1.4476483001195748		-0.4384094377388817		-0.960119068515805
H		-2.43457278		-0.41513351		-2.18224888		1.304881937142467		-0.35161331578553956		-0.4986075493147854
H		1.44273863		-1.54435968		-1.3069732		0.5066592158523704		0.5944106054597469		1.1030341955195657
H		3.79478672		-2.36547942		-0.77255999		0.051150605377015435		-1.3270445889458033		-0.9019023004279566
H		5.3659365		-0.94035264		0.4338316		1.1486349205410538		-0.8890225136033174		-0.2928742023873782
H		5.03774879		1.19638471		0.87273091		-0.04677109116272856		1.162569630976745		0.5782775504324839
H		2.48186625		2.13857174		0.64717869		-0.08521376224779496		0.8100983380793164		0.5054662754257166
24
Lattice="50.0 0.0 0.0 0.0 50.0 0.0 0.0 0.0 50.0" Properties=species:S:1:pos:R:3:forces:R:3 Energy=-15553.799845000265
N		0.44186202		0.48097229		0.18607437		0.01880422548301334		-0.2132562403968737		0.7301756489467648
N		-0.32340833		-0.36151153		-0.34197361		-2.7665022801150685		0.6645223250322942		0.5080225689939656
C		-1.72201343		-0.02200375		-0.10797734		-1.034281149680931		-1.1154681530628094		-1.044064094216903
C		-2.25568674		0.86672699		0.85864089		2.1897689342177977		-0.16686130162092783		-0.2887452678833841
C		-3.62482472		1.03698016		0.94820914		-0.10256521162262175		0.18066894814031836		1.450913961039248
C		-4.49554282		0.26548114		0.18371455		-0.6687808945557114		1.1348161154341125		0.3095250261613965
C		-4.06207613		-0.5606126		-0.8086077		2.138229629470763		-0.9740647832728595		-0.3970270187659164
C		-2.67027428		-0.72704543		-0.90898037		0.8581648538391508		0.9266401176964594		-0.0034982429081102735
C		1.7719902		0.07141886		0.14035915		0.43178416779144907		-0.10019419174536089		-2.409065981400358
C		2.19779021		-0.95436983		-0.78745755		0.6743926356523596		0.7679446910138061		1.573521898518863
C		3.5952415		-1.16003287		-0.88467477		-2.0256153127169556		0.9154049112729254		0.597720797885497
C		4.46634825		-0.37515316		-0.11215809		-2.4082808693509525		0.02307451923666775		0.42652106827817565
C		4.01275918		0.57439062		0.79364555		0.771266299137419		0.5122187635556373		1.2621416157665255
C		2.677819		0.86671985		0.81959313		-1.7981917798959537		1.653286464809397		1.2850419170556309
H		-1.40921265		1.31691395		1.41843097		-0.7471758856350944		0.4715949228478557		0.39445786968205626
H		-4.11094615		1.65117773		1.74010021		0.49784830256278995		0.059300950852431714		-0.28462085852088526
H		-5.52589627		0.47566639		0.36532231		-1.3876334053521617		-0.11259616476576416		0.028280334572377875
H		-4.63762073		-1.1565884		-1.49609719		-0.9494407630285469		-0.19201985420435277		-0.3292730521785191
H		-2.21934687		-1.24903916		-1.73387742		0.170469742008857		-0.9659821092316204		-0.636549545815398
H		1.34472327		-1.49206052		-1.23293175		0.5089127363169451		-0.24936743517069918		-0.35269549308968745
H		3.95985582		-1.9738021		-1.46030922		0.6860170042444748		-0.932786751086657		-1.0041026725175333
H		5.44991355		-0.61928011		-0.11705474		3.7570341561328306		-0.8438498772516814		-0.11741569756839
H		4.55037489		1.0327912		1.66781655		0.6196201687291168		-0.16372306457199262		-1.166107160340563
H		2.24461914		1.75427648		1.41505736		0.5661547477890927		-1.2793029063544321		-0.5331575188507285
24
Lattice="50.0 0.0 0.0 0.0 50.0 0.0 0.0 0.0 50.0" Properties=species:S:1:pos:R:3:forces:R:3 Energy=-15553.057336241725
N		0.33344963		0.35175944		0.37816095		-0.23531630518563315		-0.3386979448936888		-0.4395889570072373
N		-0.45982217		-0.37328272		-0.31010451		1.609553337673837		0.5002490958142063		-0.4381174118462584
C		-1.7695041		0.00648698		-0.25819074		1.1466021035684917		-0.04058964503625588		0.3984107864663023
C		-2.21813445		1.28419123		0.13981826		2.3243732789113145		0.0719967495376438		-0.9777090134162503
C		-3.52198855		1.4182859		0.34165339		-1.8152836506995593		1.6050187345192168		1.4484929589172915
C		-4.36702921		0.31529348		0.26595139		-1.4817674041942943		1.0403535296129587		-0.1317615788153888
C		-3.9081621		-0.95344182		-0.04123707		0.6755519460501744		0.2533950682116772		-1.2102613313234203
C		-2.58036393		-1.10759973		-0.43946554		-1.0792153419290116		1.3882939217442634		1.1343242119847672
C		1.67090753		0.04191301		0.15143762		1.5234859177673978		0.6606751834304971		-1.183529160785064
C		2.21555923		-0.57042781		-1.05455094		-0.8293047869347717		-1.02374034678865		0.7684880165255963
C		3.59113406		-0.94205569		-1.05436935		-2.9241948223138627		2.2467712160348277		0.613156415479823
C		4.44463691		-0.38391877		-0.10298992		2.3486934461886415		-2.07401478633112		-3.484535843145025
C		3.97509797		0.3557113		0.88900905		-0.45795064422085185		1.2612887808608808		5.755309540955397
C		2.59399756		0.5507762		1.08821075		-0.5432921902938218		-0.02806688159117009		0.9452741361527809
H		-1.69387786		2.24911119		0.15980871		1.0755085825576882		-0.5900909465261456		0.07436442698084576
H		-3.76140681		2.45791618		0.71055954		-0.9332736151738831		-0.87293774389269		-0.5415118042258004
H		-5.39943178		0.67105134		0.2301107		-0.7799306595490321		-0.9106930048469961		0.5052114276842409
H		-4.51227377		-1.79258562		-0.24496247		-1.60529456246217		-1.2124662579389849		0.09673641800039454
H		-2.08336053		-1.99878494		-0.75198845		0.24685968402939792		-1.1187072801982612		-0.30335864669922014
H		1.46046995		-0.87300647		-1.86760762		1.0626702419153793		0.2318661933279711		0.9953206070049845
H		3.91249241		-1.50942401		-1.85710064		1.1800079836371034		-1.3922273495668431		-2.047322056514658
H		5.53553805		-0.50905056		-0.31636667		-0.37981646584218803		-0.16423193730194496		0.6291109331062782
H		4.64668752		0.42401486		1.84554246		-0.7763571347415029		0.8140566541801191		-1.6334678363005382
H		2.14806052		0.99854373		2.03710786		0.6476910612411577		-0.30750115662769956		-0.9730362391798415
24
Lattice="50.0 0.0 0.0 0.0 50.0 0.0 0.0 0.0 50.0" Properties=species:S:1:pos:R:3:forces:R:3 Energy=-15553.439027563401
N		0.40685884		0.23707395		0.48888761		0.598973902125211		-2.068696305256593		-1.7135022141527196
N		-0.32797519		-0.57112308		-0.22799223		-1.7148349711671602		2.764325172835286		2.113978624867424
C		-1.78588483		-0.18285593		-0.02317652		-0.6132375594943608		-0.02106083127133483		-0.3651134069494486
C		-2.37963722		0.66074886		0.97343562		2.0391164837441758		0.12092890429667169		0.23251570539870964
C		-3.75296429		0.90468688		1.042512		1.1469016370822316		1.268504736039615		2.681647649551387
C		-4.55512181		0.53148835		0.00138451		-4.618448832896422		0.2562658076917753		0.021410758406270748
C		-4.10625754		-0.28619256		-1.02533627		2.025847071952394		-0.35418477886220967		0.8907785770358025
C		-2.73626256		-0.70641685		-0.94705208		0.045369994227298885		-0.1492289849410283		-0.13813812024677652
C		1.83194027		0.0007821		0.20087918		-1.1911127322882151		1.7086317735082734		0.49275772406901835
C		2.26441258		-0.52353584		-1.0238519		0.2524047307110555		-0.7159918500405916		0.3612045588727177
C		3.61842127		-0.7872081		-1.1774181		-1.3240186576812474		1.2187600098498368		0.6759233676072123
C		4.53493449		-0.25526759		-0.27534045		2.3588206614326808		-2.0223085655693893		-0.46770911185510006
C		4.21860162		0.42318037		0.89073264		-3.0436589691617986		0.3110816234136588		-0.7635466648570391
C		2.77606105		0.58133504		1.07986398		2.129225420648453		-0.2784114902145051		0.403981184224745
H		-1.70929555		1.18366058		1.69615601		-0.19726912118282866		-0.5201583814191554		-0.09239747579337654
H		-4.08215658		1.39782871		2.0500505		0.047654625039652725		-0.4754498291810821		-1.938068582918109
H		-5.74765204		0.76942877		0.07550274		2.6555246247647495		-0.4221427881933874		-0.2844530169090659
H		-4.85126067		-0.65047195		-1.71428725		-0.09159040652330756		-0.4687972541184915		-0.7942511897192458
H		-2.31550395		-1.52175728		-1.53079278		-0.10667578845032305		-0.23073902171918412		-0.8893313030882974
H		1.57186347		-0.8063012		-1.80401724		-0.6472231718949737		-0.27086663952437473		-0.22884730688596996
H		3.89530925		-1.3735995		-2.01435629		0.8213348300544114		-0.6451494229607055		-1.2614249464822342
H		5.54725399		-0.67795136		-0.51731936		-0.024618106707131573		0.9492756982080994		0.5210588845766863
H		4.96511669		0.88218586		1.54198306		0.04516857400870315		-0.01940334393255608		0.2703046992259795
H		2.48519632		1.14036514		1.96864761		-0.5936541354991235		0.0648158642054967		0.2712216060214302
24
Lattice="50.0 0.0 0.0 0.0 50.0 0.0 0.0 0.0 50.0" Properties=species:S:1:pos:R:3:forces:R:3 Energy=-15553.41872822766
N		0.38434539		0.02830045		0.67190346		1.2549134735589917		-0.5346740068942839		-1.1187266663158029
N		-0.37541295		-0.35060204		-0.28295398		0.8010299031010131		0.8492568556956749		0.875296525319089
C		-1.72381418		-0.02133867		-0.10261361		-1.6002031097933367		0.652739627909912		0.88137044791299
C		-2.34308683		0.35890894		1.14913965		-0.7119431853760736		-1.1886710584971554		-0.6094899710054563
C		-3.80409143		0.34324642		1.2929771		4.143892410628253		1.305027667267435		-0.7520181984113833
C		-4.51042228		0.29567156		0.11745134		-1.533090427746687		-1.1395241652053585		-2.22510936369764
C		-3.87462345		0.15677412		-1.23914867		-0.5794691538855139		0.7596165794685186		3.5987067571510942
C		-2.50373354		0.03210409		-1.30134168		1.720099921874682		-0.6601171512088476		-0.6930963310032936
C		1.82435877		-0.16595195		0.34492647		-3.076374148087654		-0.8285782446144911		-0.9806377569827859
C		2.26848294		-1.10860119		-0.61306663		-1.034953030348833		-0.5487404606539584		-0.39567523558837114
C		3.62780499		-1.16911841		-0.94402912		0.29837317490108534		-0.05940466915238261		0.7982011754459324
C		4.43075428		-0.14354639		-0.37184232		0.5017561221982719		-0.5868595841221231		-0.39130538872182397
C		3.93965011		0.89000556		0.44380211		1.835405977909217		-1.2017730914756801		-1.5952086905563365
C		2.63159372		0.81463122		0.83102742		0.2695176331382015		2.716618148714003		2.650528662865876
H		-1.65492591		0.54320036		1.98988394		-0.14700143261798804		-0.17849893710515372		0.11872798860197775
H		-4.18668996		0.71637896		2.24008838		-0.5835190526795306		-0.39171758797438033		0.42325479029375324
H		-5.63606007		0.21161699		0.29408179		0.9387071274020979		0.44057883170929707		-0.9082964282047005
H		-4.44138725		0.37212298		-2.10964764		-1.007789325862441		-0.1476270334296898		-1.1795765525331925
H		-1.84912366		-0.0406206		-2.26282697		-1.3385738781444585		0.0014089645109837056		1.212076427283592
H		1.4528072		-1.72470717		-1.1103566		0.9054848755184762		0.29817057197505337		0.5879289059106598
H		4.05821214		-2.05980954		-1.48375163		-0.26341547983201846		0.9020733816297101		0.06999488864667316
H		5.52176569		-0.10390194		-0.47457507		0.20332648587262236		-0.36119987946503523		-0.5577296028119721
H		4.74852295		1.61635399		0.5930205		-0.6213147827969807		0.5972731174098538		0.9267521663705263
H		2.30516228		1.5784769		1.59919472		-0.3748600989313969		-0.6953778764919009		-0.7359685499694056
24
Lattice="50.0 0.0 0.0 0.0 50.0 0.0 0.0 0.0 50.0" Properties=species:S:1:pos:R:3:forces:R:3 Energy=-15552.902687617734
N		0.37507366		0.11413159		0.40774989		-1.0780452843201458		0.24475775580491002		-2.539008556178829
N		-0.31612911		-0.11436875		-0.66201013		-1.710986801124114		0.5108601412437869		0.6697432584543632
C		-1.80512887		0.13000333		-0.55479771		0.7311638267207637		0.7770393512439563		2.9239221311167194
C		-2.35453545		1.17759888		0.28036839		2.3402029951922168		0.5531231116140545		0.27876846217199597
C		-3.65328254		1.13852783		0.73364157		-2.7337304854984614		-2.066780113521655		0.46094736775393935
C		-4.49214066		-0.05059075		0.49570367		2.9398287748030385		2.8919736551419137		-1.7646666006424698
C		-4.02399277		-0.90551973		-0.47702158		-2.0258376102929043		-2.528546377620026		1.383442764373234
C		-2.73635112		-0.86350645		-0.87383014		3.1303529154770633		1.0134565513644669		-1.170473613350989
C		1.78280466		0.03940287		0.14033073		0.04425079303819084		0.9203914629343715		3.218905203707015
C		2.40766556		-0.36959164		-1.02232687		-1.031457718498282		-0.38822777828451094		-1.9662029302552064
C		3.79972611		-0.45491211		-1.15001554		-1.3023941377613943		0.30392243819186343		2.0615086836342655
C		4.51595605		-0.30246992		0.02861973		-0.9028691894681036		0.5729305301133006		0.8195383488808446
C		3.91238876		0.16913387		1.24019605		2.5446809753091624		-1.4764412612324638		0.017016640326249596
C		2.56109878		0.40366583		1.31849799		-0.7325513996537706		-0.37271327924639475		-0.8311591179285888
H		-1.63199335		1.92291114		0.75294711		-0.724231721326724		-0.44926057277801634		-0.8066980027781006
H		-4.16624047		1.87980086		1.35762569		0.601996131001271		0.4819802254233043		0.26544063491727654
H		-5.4571007		-0.27240923		0.81575906		-2.176364899466535		0.2631304473398877		1.3517018278424555
H		-4.59620519		-1.87671241		-0.56626812		0.3734451180391071		0.7254775750556332		-0.5519521284080646