24
Lattice="50.0 0.0 0.0 0.0 50.0 0.0 0.0 0.0 50.0" Properties=species:S:1:pos:R:3:forces:R:3 Energy=-15553.143535737567
N		0.34415246		-0.27892997		-0.28023109		0.794067355846006		-0.7212115493331617		-0.011283594584294364
N		-0.3503434		0.51869594		0.39261118		-1.1125616752493124		0.19371709079740126		0.8667884365552454
C		-1.76511017		0.32670476		0.21151001		-0.10148329142878608		0.6797870671131168		-1.6431422288626891
C		-2.69526099		0.6695031		1.20078668		0.769545305551521		0.6321400011166435		2.48909511420217
C		-4.05916758		0.45666415		1.03678317		-0.9134105065810092		-0.3417948386044185		0.993075674024838
C		-4.50400147		-0.25020669		-0.08853085		-5.229017947304342		0.29035164169209293		1.8270791004934284
C		-3.71420366		-0.33146527		-1.15264485		2.5227972367725253		-1.1040561061665284		-2.8683231059617413
C		-2.35339878		0.00362698		-1.04478368		1.4069839902486494		-0.28271675097062193		-1.169133194449244
C		1.76216981		-0.22381668		-0.08257444		0.5718593057084534		1.2625997863429075		-1.8893991948981734
C		2.47705402		-1.32300522		-0.69034704		-0.02097773321842426		2.7877574353603816		1.5809140771055952
C		3.89259045		-1.2590609		-0.49475285		0.5550758644353905		-1.4627353789746511		-0.36493574372370224
C		4.66582814		-0.19489729		0.07312322		-1.3142007461428133		0.7246020630204505		0.18965464502014814
C		3.85157281		0.91501925		0.50231398		0.918808126209638		-0.5288206335262081		-0.05119760514208984
C		2.4936415		0.98459763		0.38972112		-2.0602067284352295		-4.375862167989989		-0.4290887775442873
H		-2.31402596		1.03352812		2.22061144		-0.34632908180460137		-0.20134863908481337		-1.269132188045565
H		-4.8128443		0.77284473		1.80772271		0.6926928735013529		-0.3283935292224657		-0.2547279794923053
H		-5.65950801		-0.59861495		-0.21122171		2.4834869726498927		0.8422667462151976		0.5145206721809725
H		-4.07386689		-0.81372512		-2.08152613		0.06911629128774367		0.3493629834888364		-0.022314603997860553
H		-1.71052962		0.00847733		-1.9855749		-0.4666562965486081		-0.26493705865975603		1.0732975367166926
H		1.86895255		-2.07054748		-1.25758479		0.6826130693988879		0.05026691723390393		0.5304808462342966
H		4.31220454		-2.25133857		-0.74891536		0.8463171592298385		0.3909783444046759		-0.22768249432747348
H		5.79956575		-0.08476493		0.2577642		-1.5453639484551032		-0.8293409366446705		-0.45505290815797034
H		4.16530747		1.7372461		1.11378221		1.4721446908049003		0.8358147686182034		0.28805621224662575
H		1.89455098		1.6320462		0.98475056		-0.6753002864765703		1.401572640929348		0.3024511501411967
24
Lattice="50.0 0.0 0.0 0.0 50.0 0.0 0.0 0.0 50.0" Properties=species:S:1:pos:R:3:forces:R:3 Energy=-15553.871927494474
N		0.27534034		-0.35495447		-0.36655286		3.281028557300847		-0.5410075080594055		-0.7404509083085818
N		-0.35712218		0.39025223		0.39050112		-0.9811820080917003		1.0406686440116195		0.626974860632327
C		-1.71027524		0.28092141		0.14478775		-2.0443634367298418		0.9296290764981177		3.043200592897167
C		-2.57740648		0.61088954		1.26500405		1.382581907625848		-1.538716001378133		-1.762176795800962
C		-3.92849799		0.37196272		1.16809138		-0.49497612326494345		0.04582091429287611		-1.293434768977536
C		-4.51335949		-0.05277017		-0.07086656		0.8425246278583574		0.027561299873214175		0.691762082749042
C		-3.66201068		-0.23201008		-1.20568563		-0.6910816660187743		0.08676588578062462		1.3162334088491883
C		-2.26350771		-0.10897571		-1.04822738		0.26295504668488895		1.033511412828197		-3.086012802316406
C		1.69813027		-0.16374439		-0.2011213		1.1199268058311989		-2.333092403819431		-0.2501214882943877
C		2.5116973		-1.30989515		-0.50829478		-0.7019874627102878		-1.3850126285176072		-1.2023342090210762
C		3.91288358		-1.29688716		-0.34719631		-0.0020703036560844883		0.1793486866870517		0.5271970847486429
C		4.5058601		-0.10200543		0.10062401		1.9907111480148936		-1.2470206497722982		-0.7389490241307606
C		3.75118458		1.00898598		0.35190493		-0.9826424460871911		1.0545339860850729		0.8931339646060804
C		2.35065874		0.96615188		0.31386251		-2.013276331723047		0.8823927185143897		-0.4315560595224445
H		-2.0532308		0.71288397		2.19335446		0.26908764185203926		0.7556528640511593		1.06364772390039
H		-4.52601922		0.60766286		2.03195335		-0.7660227914299369		-0.11337531185592568		0.6458792048709201
H		-5.60598788		-0.26744497		-0.04319391		0.3992383731392866		0.20351499915354448		-0.5146921647592255
H		-4.17759012		-0.4316583		-2.14730883		0.28651139064666326		-0.18792418977476044		-0.47081047928526243
H		-1.51104739		0.0359339		-1.91981476		-1.3282968190104558		-0.9726213145579755		0.8481794606433343
H		1.98973954		-2.24240007		-0.97086705		0.6675113352560151		1.3491106186938067		0.8557875604702718
H		4.63763767		-2.13894225		-0.44501657		-0.8697584206158616		-0.051920650762124224		-0.3820241178270622
H		5.64805703		-0.05974639		0.16313617		-1.2716696097168967		0.044832787940939506		0.07550070029468542
H		4.29425336		1.87672624		0.69221571		0.08231556338635143		0.9141091781434448		0.22936553843128724
H		1.54270196		1.7426811		0.55547483		1.5629350214586315		-0.17676236263433504		0.0557005323062439
24
Lattice="50.0 0.0 0.0 0.0 50.0 0.0 0.0 0.0 50.0" Properties=species:S:1:pos:R:3:forces:R:3 Energy=-15553.210338863191
N		0.47675362		0.31336344		0.43501897		-2.7278714042814545		-0.13094319669158203		-1.3872936597855898
N		-0.41052093		-0.19911962		-0.38535628		-0.09983135767275138		0.7166902130706525		1.255585714181331
C		-1.85356256		-0.00638533		-0.08162713		1.9157943452392676		-0.2496295334229796		-0.1409250417650898
C		-2.39378862		0.52315557		1.15311253		-0.3704520968945157		-1.2236446429835175		-2.8855273853938517
C		-3.75681059		0.65273396		1.15445885		-1.6255910561973275		1.47198461392451		1.8064568994147465
C		-4.55394653		0.39522955		0.07245938		-2.958082578529644		-0.3781255541628203		0.34689379889436855
C		-4.09041388		-0.24196859		-1.04148864		0.989858144155613		-1.4071298746398053		-1.856689415288875
C		-2.71834049		-0.45100117		-1.16108406		0.5813773237787105		1.8219717584072992		3.375324227107306
C		1.79867091		0.09271291		0.09495454		2.551055922656614		0.1768966770614405		0.3007089192435092
C		2.27639854		-1.12126144		-0.52217745		-0.0026218566978659197		1.29497372846238		0.9408395489096156
C		3.67378133		-1.36223376		-0.60709137		-0.5071320931386114		-0.9449760938788517		-1.6512053110981368
C		4.58266835		-0.38496983		-0.28374257		-1.0375276301713123		2.0874929202743644		2.1440377000018254
C		4.15481171		0.77002922		0.52446814		0.9180213686542346		-2.355289765514918		-1.7459312807231322
C		2.81787584		1.05553243		0.62119789		-1.5320463541908105		-1.1290835324907194		-0.03933633510829217
H		-1.89841395		0.73658979		2.04156253		1.8455557674386693		0.4347482897369467		1.6420366030980666
H		-4.45101945		1.01357797		1.98459224		1.6124603811300209		-0.1614712924575409		-0.06920571425433494
H		-5.63200903		0.55560672		0.33271773		0.3263869375017501		-0.19398263432786547		-0.9026546566235844
H		-4.6104787		-0.78795999		-1.8495891		-0.8832158314679416		0.7268983152189169		0.2031556103591187
H		-2.30745039		-0.8986089		-2.0110821		1.0516953339719404		-0.9391571732926137		-1.6075672633560367
H		1.48057808		-1.77708541		-0.88213802		0.04943639950336022		-0.5124819930932916		0.012782084905994223
H		4.10290586		-2.299252		-1.06778268		-0.6726376006611233		0.5599348893819739		0.1351037043419171
H		5.61360104		-0.38751524		-0.56795862		1.2032676737206343		-0.627691272806306		-0.0037527306951488995
H		4.96599303		1.19833847		1.11422241		0.032810566851690044		1.0742765099415141		-0.13425981687513777
H		2.5625186		1.99325658		1.1280528		-0.6607103046991467		-0.11226130429512456		0.2614238519314743
24
Lattice="50.0 0.0 0.0 0.0 50.0 0.0 0.0 0.0 50.0" Properties=species:S:1:pos:R:3:forces:R:3 Energy=-15553.116994880602
N		0.37453241		0.17702847		0.7149021		2.517829145631497		0.3772812553195413		2.2188330438659567
N		-0.33493458		-0.11258383		-0.24221724		1.0973677413484761		-0.9136380492073269		-2.6309769148611046
C		-1.64836115		0.05599321		-0.14214837		-4.410498115214339		0.1155237256248636		1.1538813078840326
C		-2.38825838		0.16474682		1.08735382		0.37809809478147477		-0.48586212833931414		-0.17157824740897654
C		-3.77462483		0.15514252		1.20727959		0.09841879361739653		2.165433700276174		-1.145255051220691
C		-4.54267512		0.35988741		0.0258907		2.655809194458319		-2.407314957329992		-0.4175884903888512
C		-3.88682163		-0.00125783		-1.19354369		0.6064173485082005		0.0588186119067008		0.47455529098279486
C		-2.44647018		-0.09270235		-1.28563549		-1.5934147804858922		0.19541844115544532		-0.9031465600729301
C		1.75832536		-0.10176756		0.42565138		-0.15808442973668577		3.1031218480888687		0.1286441677017437
C		2.1766891		-1.0312684		-0.49018529		-1.3994938012108977		-3.332749124817999		-0.4837839056856133
C		3.48903504		-1.12241885		-0.84075476		3.6293037070586665		-1.6809499403206887		-0.22601467115414334
C		4.50537222		-0.30265088		-0.31858861		-0.4273305029631171		2.1492637756301383		-0.37781578765865353
C		4.04497589		0.9232846		0.34931173		-1.5387956541528596		-3.4611698636584203		-0.9890969433652448
C		2.67700561		0.97335432		0.72212454		0.3588780190794715		-0.8928787569101676		0.2768794727080914
H		-1.83785795		0.17386736		2.00317997		0.8676588578062461		-0.06519854719420985		0.929945630714527
H		-4.19194977		0.31642544		2.19924247		-0.34894157968710243		-0.19509437931791904		0.41692797399674947
H		-5.59535807		0.37811073		0.0193628		-1.8719480381442668		0.23217657689688706		0.17747255273875823
H		-4.56369183		-0.4161382		-1.96906452		0.44395983231503344		0.7611107503369731		-0.4494427611452579
H		-1.93524155		-0.22394945		-2.26509034		-0.2548617282767238		-0.2861146180128402		0.3130304167361866
H		1.58701966		-1.9632813		-0.79172666		-0.08269824637506461		1.475444444551974		0.22200976666476585
H		3.92145463		-2.0101215		-1.41319348		-0.9551850187801149		0.7301860362033785		0.321199171309958
H		5.57567925		-0.52617951		-0.63275053		-0.9620324320373084		0.5585721018830654		0.5051239587560226
H		4.6397802		1.78289521		0.40379995		1.420336705781592		1.5489651383322278		0.6386667463924319
H		2.27659601		1.82704478		1.27897367		-0.07079301047787674		0.2496540617467657		0.017529883931509754
24
Lattice="50.0 0.0 0.0 0.0 50.0 0.0 0.0 0.0 50.0" Properties=species:S:1:pos:R:3:forces:R:3 Energy=-15553.716951205613
N		0.4225388		0.45014084		0.34835944		0.3998156886343528		-0.05624036111778796		0.6635268967474905
N		-0.3870247		-0.33482374		-0.18165737		0.1411432255760425		-0.8422403152751009		-0.8024064717126567
C		-1.73350259		-0.06751667		-0.04983916		-0.8852633037283006		0.9382046824299514		1.1425993588057366
C		-2.33124477		0.40996848		1.12677014		0.4781483561740531		0.2733649804282486		0.14250549885432645
C		-3.68800923		0.72412415		1.15054333		0.7204498343221689		0.16980140946326372		2.2608680602334075
C		-4.47485735		0.40928482		0.08715662		1.1488134579418616		-1.3029425026353043		-3.006238774366382
C		-3.94811572		-0.29184571		-1.08473248		1.7685844475801287		1.799628820853032		2.7399510638144546
C		-2.53236292		-0.41844605		-1.13779063		-1.032846114184288		-1.5993294489524021		-0.014097924061890647
C		1.78840326		0.05623097		0.1446458		-2.462503068783975		0.6996846799098908		-0.2697719666590528
C		2.15675864		-0.86449717		-0.78921068		3.240819486948744		-1.076766314783022		-1.4674519648082631
C		3.55875321		-1.04914936		-1.07623982		-1.65490533417928		1.2584455007621282		2.067264612194009
C		4.46957798		-0.29929305		-0.27693658		0.40223432534143744		-0.27030027692860925		0.08883017305540307
C		4.04252671		0.55147499		0.77720245		-1.221164814022124		-0.43846970439606675		-1.0994212299901414
C		2.66933699		0.76523484		0.90239191		0.6798051676790973		0.5457352010585053		1.8503828078624116
H		-1.74388807		0.48619301		2.03948257		0.39989595847382897		0.26831379123430954		0.2389462399956642
H		-4.07131996		1.10793619		2.13887074		-0.0979135204318153		-0.07168538894954138		-0.9072325057327205
H		-5.470736		0.71573207		0.01126917		-2.2792038307275497		0.36095814434948287		0.2466429400361937
H		-4.68352352		-0.63966859		-1.76239316		-0.6055523779958187		-0.5511121490180312		-1.4254680619708824
H		-1.87163562		-1.0911001		-1.70758288		-0.7173833824724065		0.10734720631966298		-1.2883725754622342
H		1.46383977		-1.45218724		-1.34764453		-1.0647591603580688		-0.4368832309255241		-0.47554603985991606
H		3.80669426		-1.83491274		-1.77452035		0.6401324294382921		-0.21176134961954493		-0.5706182342313516
H		5.55547211		-0.39808175		-0.41562825		0.10638983036106828		-0.18609824375941297		-0.14511537421164278
H		4.65693149		1.06163737		1.49160765		1.1520914087344591		0.3304446010271958		0.3163631834473499
H		2.13557473		1.32886008		1.7039216		0.7431712382560293		0.29190031994673876		-0.28613966055725076
24
Lattice="50.0 0.0 0.0 0.0 50.0 0.0 0.0 0.0 50.0" Properties=species:S:1:pos:R:3:forces:R:3 Energy=-15553.614570720474
N		0.37200322		-0.34089149		-0.38993853		-0.8093354403608873		0.1681935444147441		0.8193623311610966
N		-0.38166301		0.3853338		0.35716861		0.7150384335808049		-0.9491687403182145		-0.25863338229085236
C		-1.80015906		0.2495952		0.18154321		1.2708705622885692		-0.6630350447202074		-1.1242815346113872
C		-2.58472093		0.4592284		1.33241911		-0.655586764663348		0.7818167179553773		0.5294878862084902
C		-3.98394431		0.46831375		1.15827351		-0.12344611709746271		0.6992909925998145		0.6546869299926289
C		-4.48260107		0.03633814		-0.07911584		-1.6052341415387976		0.28817977946268025		0.45346242376655693
C		-3.73960028		-0.19599487		-1.21249981		1.258193378389962		-1.2690471359542814		-1.1283821869810367
C		-2.36732434		-0.11702235		-1.10687295		2.123092156994491		0.16176450105760037		0.9296687229082625
C		1.78363697		-0.22456		-0.15690904		-1.2087646407739059		-1.2861366927650775		-1.5635375337642956
C		2.60000731		-1.33925934		-0.52081259		-1.9569195510558843		2.49302982757631		0.9137127140419966
C		3.93376995		-1.26038639		-0.37627256		2.075775786281599		-0.10616115644937685		0.24721130809239455
C		4.56604659		-0.04051603		0.05431996		-0.6701848711266379		-1.0953630522440714		0.5456156961853837
C		3.75953138		1.04585588		0.43301196		-1.3728456029005136		-2.024330892441213		-0.8394437264090481
C		2.34491086		0.92995872		0.27301051		2.585282498841843		0.44907915574171164		0.3760149870318416
H		-2.20104914		0.62683736		2.38686363		0.20594726270717698		0.12867265552433801		-1.2596243001216096
H		-4.6469465		0.97801918		1.95854453		0.6733067559597158		-1.3985696953267048		-0.916809350642414
H		-5.51981818		-0.22584287		-0.19466707		-1.2132047301777527		0.3701378566709163		0.1955375860741296
H		-4.09154413		-0.65017752		-2.16943024		-0.5383350520520942		0.431015819334401		0.5504808917794605
H		-1.64480235		-0.4606883		-1.91688342		-0.6859831685273862		0.6793382039300373		0.7532996876295667
H		2.05623294		-2.19925764		-0.72180469		-0.972959054664112		-2.311163259601656		-0.8263955837519653
H		4.41634586		-2.25606359		-0.48896975		0.7081802731125606		0.6844672975485799		-0.1110558683072968
H		5.6241416		-0.10515861		0.32015371		0.35425538135394624		0.33136891259963863		-0.15651225159950272
H		4.12169145		1.84228601		1.01761686		0.9438008426416787		1.6632330857701303		0.5349021151632886
H		1.66783176		1.69480079		0.50157668		-1.100944197213565		1.7733872682124598		0.6812323870222489
24
Lattice="50.0 0.0 0.0 0.0 50.0 0.0 0.0 0.0 50.0" Properties=species:S:1:pos:R:3:forces:R:3 Energy=-15553.70293767812
N		0.36952687		-0.66425771		-0.18713786		0.9115980331460223		-0.68123367257381		-0.8347870472781844
N		-0.32251092		-0.02772782		0.6452477		-1.2792039703062885		0.2511258640180568		-0.900249441074798
C		-1.70320967		0.06141407		0.22470726		-0.3410069497636414		-0.0580149364927532		0.07352218502006466
C		-2.49776528		0.91665746		0.98667397		-0.27486429350294755		0.02923441951897611		1.5472870307464088
C		-3.87892124		0.96512107		0.84265752		-0.21261336177219053		0.0977478385466186		-1.2534901108705236
C		-4.52928658		0.42829392		-0.26107462		1.4816292845345678		-1.8281187003298716		-0.24982586285739333
C		-3.74875852		-0.39326638		-1.11205152		0.749629437922579		0.8556028524219705		-0.17519676652114488
C		-2.36666601		-0.58741701		-0.86052152		-0.6647147978120247		0.41571312777149444		0.6095551227585737
C		1.77813799		-0.48251055		-0.0807135		-2.4237673947870992		3.6932994922122964		2.9315416466415196
C		2.67018979		-1.1969633		-0.76448068		-0.48955299829334215		-3.5770828542959903		-1.832175438258194
C		4.00785544		-0.91033596		-0.74112261		1.6354742223330039		1.4850908635121551		0.2735547792607318
C		4.48101371		0.23752681		-0.02854912		-3.2604966533638176		-2.5450729142691153		-0.4254688186143705
C		3.55333446		0.99004451		0.69635538		0.974995882557545		0.592396094741415		-0.8311369035976127
C		2.22290082		0.67630086		0.62427737		-1.6178682337490762		0.7052051982677624		0.609997249651473
H		-2.10684686		1.42260083		1.8800093		0.46894709800845524		-0.014891675017786432		-0.048686768677041956
H		-4.50647198		1.42821858		1.54882529		-0.7399719117969098		1.1618687482656243		1.4764561222085102
H		-5.59231341		0.30499823		-0.3716849		-0.9924792295225423		0.6343144344491782		0.026721371905243093
H		-4.24249141		-0.74072738		-2.03424072		0.2543977984293481		-0.5764067643786847		0.08406082818572323
H		-1.80590165		-1.30350409		-1.41239236		0.7472949791317164		-0.7445648789924044		-0.9736287241833288
H		2.12629918		-2.0678646		-1.21937517		1.0638536178384184		0.15352956628946263		-0.4093434254744117
H		4.75500084		-1.44639762		-1.31834256		0.1509423680616844		-0.620884740088756		-0.2296105131367736
H		5.49845856		0.30830034		0.05881757		3.189473220624127		0.9092089641248433		0.09689952878246902
H		3.90938185		1.94008966		1.07987206		-0.012141571696183528		0.44769883331950955		0.7604375326954477
H		1.4447017		1.37111498		1.06922775		0.6804453723565334		-0.7857651095981282		-0.32643368015651225
24
Lattice="50.0 0.0 0.0 0.0 50.0 0.0 0.0 0.0 50.0" Properties=species:S:1:pos:R:3:forces:R:3 Energy=-15553.347850423797
N		0.3882702		0.40594234		0.22207474		0.475282244679575		0.38101172026165175		0.5380670402626324
N		-0.33556655		-0.5726963		-0.0666582		-2.4766741664407244		0.5962862766094783		-0.6780464817214275
C		-1.77023486		-0.14654307		-0.07184323		0.9315664027007203		-0.09539543345596269		2.108250104266964
C		-2.23927963		0.88071529		0.84531264		0.6087834318674666		1.6140063854374196		-1.196668783291236
C		-3.57628032		1.2821728		0.62368977		0.515711864257503		-0.7531663502216477		1.9064367125817754
C		-4.50021829		0.41134878		0.02515536		-0.7929466119950247		3.4696195883813896		0.2352971247563413
C		-4.07835083		-0.69241387		-0.61058781		0.3731946925950017		-2.9117654927562397		-1.6461060936978742
C		-2.70450351		-0.95519052		-0.74921945		1.014835022592421		-0.2723795794456215		0.459068354170149
C		1.76061829		0.12371132		0.11501814		-0.8658801686662853		0.3093381069644102		-1.1460391348288475
C		2.20755908		-0.67556037		-0.93861763		3.9791927896683745		1.4581077533090687		3.2556628766498954
C		3.58704273		-0.92024234		-1.04334898		-1.0484035506445453		-0.5919682631818752		-1.3969750457482335
C		4.51735306		-0.32516035		-0.211483		0.968509555022838		-0.4275213302368492		1.3099411481781473
C		4.04591686		0.42564127		0.91815134		0.6424175744712705		0.593816217839949		-1.5805428612368073
C		2.68226246		0.77397514		0.91716506		1.5002555896815228		-0.5119218011450194		1.8763799000181216
H		-1.56812731		1.5947413		1.50484341		-0.8317525799512626		-1.7185363826439894		-1.3040356842608152
H		-4.01075007		2.09397717		1.22359967		0.1838386554914697		0.39364149301868484		-0.11659716117839589
H		-5.49099214		0.89159329		-0.09841119		-0.2815339406902698		-0.8904669079153256		0.23630566566706843
H		-4.82037326		-1.42743394		-0.97871326		0.18356915246219724		0.18960121749726816		-0.3229688615889911
H		-2.23090947		-1.81435334		-1.27800256		-0.621111974182699		0.19327876913712297		0.046568642502883936
H		1.66639227		-1.17451455		-1.60108798		-3.484869520908229		-2.1342999040366792		-3.0366665971105737
H		3.80109973		-1.66174007		-1.85945494		0.6372110906487485		0.6441008756853964		0.4596103941303782
H		5.58079649		-0.61206137		-0.40063618		-0.320964532439023		0.4095653630959229		0.47052714372119236
H		4.72575577		0.90247735		1.68296774		-0.3897450376590031		-0.5050186463721358		-0.6956386377705577
H		2.4263868		1.35043417		1.79774214		-0.9004859311399809		0.5600662727515199		0.21817033837233524
24
Lattice="50.0 0.0 0.0 0.0 50.0 0.0 0.0 0.0 50.0" Properties=species:S:1:pos:R:3:forces:R:3 Energy=-15553.016867056567
N		0.35709209		0.32504291		0.30815411		0.768067486898924		-1.263253000802142		-1.5558472614815715
N		-0.4109753		-0.34933061		-0.47574793		-0.6679890976381885		1.0895884060535983		0.13357374371800113
C		-1.79934371		0.03436852		-0.36086261		-0.49351013168670854		-1.640448638387713		0.7058940996383335
C		-2.20916655		1.19989606		0.32889818		-3.278805375853115		-0.5441288272497965		0.2288524490922144
C		-3.62710629		1.28262235		0.71586034		1.8640140767076172		-3.8497638184496004		-2.1015276980435735
C		-4.49695128		0.11664133		0.43203166		-0.8923456129667413		2.1199743345043465		2.4884354719851296
C		-4.12837207		-0.9812958		-0.30982315		1.4238036326536738		0.155709604626804		-0.5085089188605673
C		-2.75716288		-1.01473123		-0.70883761		0.5711156912634413		0.38191453741199266		0.014538199760541834
C		1.74417488		0.02922932		0.05223069		1.6214169731225072		0.9429586521029603		1.9356881528034207
C		2.39231657		-0.33052425		-1.19130656		-0.9930889409169487		0.815554938813569		4.770184437693377
C		3.73452095		-0.50669506		-1.20501966		2.7278746952934507		0.07618142555732785		-0.7218254259146261
C		4.55232319		-0.33820069		-0.03280081		-0.023148412740400724		0.8814567341337722		-0.48796945588035884
C		4.00666508		0.21802621		1.1745223		1.742318623726083		-1.2598661895033492		0.3712468762916604
C		2.63625969		0.32020568		1.1956209		-3.0599760637505513		1.2960126598120119		1.1728564603026121
H		-1.46974076		1.93200603		0.64128322		0.2072729234770003		0.41381729917328464		0.02906770919253052
H		-3.9984278		2.11736058		1.22630388		-0.7242846346289795		1.5846738012012367		1.1649660533528534
H		-5.49050153		-0.10802509		1.01667671		1.271466338304053		1.3768725674546798		-1.0274793992151885
H		-4.980758		-1.69080065		-0.44286271		1.1233521322547626		-0.35164951691750057		-0.3466844596781564
H		-2.27872898		-1.88994458		-1.17782343		-0.20376743005808534		-0.05803298563667128		-0.1484233554887078
H		1.76880323		-0.46040754		-1.97139417		-2.2703261201788534		-0.4729381185409727		-3.4540452340625882
H		4.19219262		-0.63278205		-2.25758694		-0.16818809367612497		-0.27468606463451434		1.5766055767595444
H		5.63331082		-0.48401738		-0.1828116		0.07067556248725312		0.0099137108407686		0.24966198074438217
H		4.60447595		0.44143465		2.18871792		-0.9261537678298578		-0.48031353353534795		-2.368853722880383
H		2.19430951		0.76064166		2.21030671		0.310205648579914		-0.9495479780287439		-2.1204061769847566
24
Lattice="50.0 0.0 0.0 0.0 50.0 0.0 0.0 0.0 50.0" Properties=species:S:1:pos:R:3:forces:R:3 Energy=-15553.312611054973
N		0.34300021		-0.31723853		-0.36299196		3.5725622893644178		-2.2219833650995664		-3.4493036571066282
N		-0.33990021		0.18928865		0.46909484		-3.1971942947222556		2.7328392383121702		4.78971705669092
C		-1.76969143		0.09380927		0.33255949		1.3105963680978172		-0.22702408623993203		-0.7922476319002142
C		-2.62952533		0.86333802		1.10381755		-0.18262776876502282		0.9220079154673193		0.4500714472807062
C		-3.97563685		0.92169873		0.80373975		-0.7441831730228777		-1.2671143863152365		-1.406378546885426
C		-4.54983968		0.25514156		-0.30393699		0.8172539237567407		0.8952588270704187		0.8308928030671878
C		-3.67949639		-0.59475469		-0.9588702		-0.8528007099731736		-1.1958670104935987		-2.37314972766526
C		-2.32540543		-0.71162946		-0.65655762		-0.06269043609847154		-1.4814678192584918		-0.5587410747802586
C		1.79438153		-0.19712898		-0.14889274		-2.4309379957067567		0.16123310546429723		0.6924100007358449
C		2.54047492		-1.02318069		-0.94239068		1.6341465046806831		-0.690828720893609		-3.1535739875916984
C		3.96060321		-0.97618104		-0.85408285		-1.297407894632323		0.8401528880722223		0.8613010340055883
C		4.53240732		-0.02991661		-0.01605595		-0.07070651856884481		0.15207792146664983		0.41384285593831954
C		3.69557218		0.84684665		0.75101645		5.107651029879767		-0.99665598654461		-0.5267547007454316
C		2.41160474		0.67056526		0.80921563		-5.911908850106619		0.27624621000908534		0.9630241579336162
H		-2.34301152		1.58297216		1.86599086		0.833847051976696		-0.08256424048033383		0.5087339418058251
H		-4.6762822		1.37068464		1.43616014		-1.0615995831532192		1.6265536772062914		1.4294727607720104
H		-5.56284927		0.51443271		-0.66275088		0.05846277123458375		-0.4621663277441901		0.23333830413163684
H		-4.11685734		-1.14592258		-1.84673472		0.5852091416058992		0.12608036651237778		0.6696493617683391
H		-1.70123794		-1.51096214		-1.14550918		-0.2663762079213947		0.9036710136878031		0.10382356091270503
H		2.22864738		-1.55256957		-1.94200889		-0.4949042866437082		0.598191001224491		2.146722034505561
H		4.46296978		-1.66533038		-1.48896479		1.200353996818395		-0.7152406251303374		-0.5795188790198981
H		5.59875876		-0.00060916		0.20439417		0.5227021280041678		0.12174250416867109		-0.36244640168075626
H		4.16396315		1.5306148		1.42237315		0.7085235668014411		0.8459089194760903		0.746552855926515
H		1.83789657		1.24136907		1.64154778		0.2220288442499328		-0.8610510199379823		-1.6374374652550787
24
Lattice="50.0 0.0 0.0 0.0 50.0 0.0 0.0 0.0 50.0" Properties=species:S:1:pos:R:3:forces:R:3 Energy=-15553.68270522636
N		0.36628755		0.40774867		0.34338624		0.4750776877151701		0.727724256385903		0.34832297227589304
N		-0.37112811		0.29020956		-0.67549347		-0.2046154312898602		-0.7063960303898558		-0.12493771686279499
C		-1.7726743		0.20021366		-0.36561529		-0.4488399917292816		0.8874419022478935		0.6600214033285756
C		-2.40281405		1.16104964		0.50698405		-0.25168847280326384		-0.3968071380269031		-0.10426198541710821
C		-3.74228958		1.01686439		0.91363126		0.8365763293630087		-1.7705367890249653		-2.329098195119042
C		-4.49197563		-0.07989715		0.38389037		0.723950956865776		-0.552396466449649		1.863851428724105
C		-3.8606349		-1.10891754		-0.34599909		0.052360515084275853		0.22097813724800106		-2.3082166725794524
C		-2.55093885		-0.86065457		-0.90626076		0.08452522083166097		-0.36761277629457134		-0.32247932355451786
C		1.78640405		0.22541984		0.13726464		-1.2206162948820267		-2.136050259620233		-1.982390081292161
C		2.14737524		-0.79981822		-0.80898707		0.5607334225896771		0.8719897781715226		0.9622552952559437
C		3.51292777		-1.13160569		-0.83725721		-0.915329115152882		-1.3036324324471242		-1.6788903838756553
C		4.50272714		-0.52714833		-0.09773398		1.432403355532794		-0.30535618813694543		-0.19504619684540841
C		4.12143303		0.45795837		0.81806475		-0.6727681612776703		-1.0005437515757383		-0.6817087095866737
C		2.76748401		0.77064437		0.95615177		-0.21187499237754764		0.3359238788909867		-0.5123566261050514
H		-1.9042898		2.08904758		0.81020143		0.5840355872967872		-0.17899402872237088		0.13296434085596942
H		-4.19358098		1.72653141		1.55726004		-0.6943693355811736		1.0818205893007078		0.847486599773955
H		-5.47782697		-0.25084291		0.843883		-0.25261653818626506		-0.02972020374289082		-0.3803124316344668
H		-4.45994976		-1.99939022		-0.76594535		0.7110600628756489		1.1205763179019372		0.6907914398983365
H		-2.11582146		-1.43706461		-1.81343275		-0.5307448471028874		0.38490627300502295		1.6325090719462574
H		1.34089699		-1.26731379		-1.4039671		0.36555219140828893		-0.03022033472222759		0.06185955841349071
H		3.88717061		-1.93391963		-1.48899172		-0.36431183984006127		-0.17070443230185445		-0.32513043940591485
H		5.57057132		-0.92160482		-0.33737942		-1.3976183357494165		0.9645869772554343		0.917054633880275
H		4.88286151		0.81052945		1.4442955		1.2198519059237867		1.2953395964366736		1.3569994829816916
H		2.33438061		1.53891012		1.54970794		0.11926606906339868		1.0576831246112464		1.4707125863658166
24
Lattice="50.0 0.0 0.0 0.0 50.0 0.0 0.0 0.0 50.0" Properties=species:S:1:pos:R:3:forces:R:3 Energy=-15553.432192179005
N		0.39864376		0.33747719		0.44752986		1.6765582390776026		-1.1666877668476257		-0.0891521265883691
N		-0.32475271		-0.51045449		-0.15469543		-2.1556667480016225		1.9313660770328849		0.5625056839718322
C		-1.77006781		-0.09910636		-0.02755146		-0.7300253936803014		-1.5343937199193467		-0.7054650853713578
C		-2.37225897		0.83492884		0.84986612		1.5278445546243322		1.0454268817158114		0.14969456029440228
C		-3.73714215		1.0910839		0.82863331		-0.20716637696361498		0.7963800631044546		1.422635426239056
C		-4.61707427		0.4000956		0.04897979		-0.3991810889617232		-1.1778672317554697		-1.5856830105987756
C		-4.0847461		-0.56507504		-0.84199463		-0.040364467824810714		0.09840609236797271		0.22237434908749848
C		-2.70029463		-0.82638538		-0.87204112		1.5468572965705585		-0.16884537047829257		-0.5506075443192617
C		1.83178895		0.01294869		0.24534898		-2.4092263668131224		1.6531722049866453		-0.8728271350363715
C		2.30818086		-0.17254755		-1.03693987		-1.7385733492299882		-2.1991180308129237		-2.789750040280112
C		3.58227201		-0.6421248		-1.3082132		1.7136602855726746		1.6691503767618248		-1.1114418569954552
C		4.54388396		-0.42729568		-0.24784522		1.7073853541366772		-0.456569293357401		-1.6502943178398672
C		4.16676713		0.12625106		0.96065779		-0.6900153781319218		0.20085200480572285		-0.16875075388339442
C		2.77553671		0.36716887		1.14000748		1.621233602047829		0.849589813550004		5.015142431009448
H		-1.7912661		1.544136		1.48537092		0.22772563743786456		-0.7191166145091662		-0.1836222714527026
H		-4.17793046		1.82909191		1.51860751		0.3314013599210412		0.1859491712003859		0.060786688502645306
H		-5.70011095		0.61902455		0.04248335		0.16220919905362183		-0.0720530566960207		0.09275593899067824
H		-4.824019		-1.06970074		-1.4773452		0.2945140519587385		-0.32930082009223927		-0.30032613341067116