24
Lattice="50.0 0.0 0.0 0.0 50.0 0.0 0.0 0.0 50.0" Properties=species:S:1:pos:R:3:forces:R:3 Energy=-15553.494292627354
N		0.35789748		0.52276458		0.20491436		0.8254774428270156		-1.809292774736507		-0.7377533069127349
N		-0.3893254		-0.30012555		-0.46791819		1.0320986430845924		0.6159709506456691		0.9843916703853709
C		-1.7472685		-0.1587211		-0.20707382		0.4140459216629136		1.246346300845399		1.8766550080522006
C		-2.23987149		0.45081791		0.97422461		0.46471120561457624		0.7231314434565954		-0.5355427312172241
C		-3.59381696		0.82361285		1.0998228		0.9886856182877499		-0.3862891665303473		0.16477629125498416
C		-4.59480277		0.40340428		0.24854126		3.8602538163441866		-2.2909036869073334		-2.5100009593772965
C		-4.03127443		-0.41293034		-0.87377538		-4.548358556323914		1.9165764748090508		0.7168363031500576
C		-2.68773291		-0.56315686		-1.09681778		-1.6754087502937147		-1.6404772290544323		-1.7477481764554899
C		1.75249162		0.11379453		0.14410008		0.28765321754324696		0.5714249949690459		0.15160334725234806
C		2.20568842		-1.16579035		-0.2319502		0.8167094669595767		0.7070976844319133		-0.7640904531673915
C		3.5855609		-1.37518695		-0.38615868		0.6745332235710834		0.48453266233687		0.2646718236616664
C		4.5325946		-0.34843891		-0.09140298		0.03737098388165723		-2.32697955472426		-1.0199613908416543
C		4.0842014		0.90247385		0.25297409		1.5879772573368063		-0.7726767034661511		1.0762917919907826
C		2.76483329		1.06634688		0.47252802		-4.283695474412863		2.22700267261479		-0.14056112782916894
H		-1.39539093		0.76106257		1.59717997		-0.2957081750928284		0.37031623980553696		0.7284442681042531
H		-3.927019		1.51962388		1.82381268		-0.012046697990973129		0.8823119858763517		1.7202654494936909
H		-5.57096935		0.73895552		0.47590932		-1.7302080595335536		0.05840358444070995		-0.35440687074990823
H		-4.81872729		-0.69671098		-1.65184033		1.1161335545508435		-0.1329852696353844		0.6328431463985118
H		-2.4859831		-1.12909478		-1.99170747		0.802024662899005		-0.21140982840067327		-0.7451043992715738
H		1.48769027		-1.84738372		-0.63670504		-0.7759594879326183		-1.0133846633211694		-0.024049944339180517
H		4.01485458		-2.31032356		-0.76541128		-0.309057651035837		-0.3559055667598578		0.03334324799655428
H		5.61410908		-0.5997974		-0.18163822		-0.37538840920095345		0.2494540813459184		0.024023153444646846
H		4.8480947		1.54305325		0.64114644		0.48922795943662944		1.4203639594746877		0.006747088813363943
H		2.30540926		2.0698837		0.70993466		0.6089283392394358		-0.5326286943605476		0.19832682158525286
24
Lattice="50.0 0.0 0.0 0.0 50.0 0.0 0.0 0.0 50.0" Properties=species:S:1:pos:R:3:forces:R:3 Energy=-15553.67104276464
N		0.33352766		-0.2901157		-0.45991607		-0.20868805863547737		2.3008910855635856		2.2971461195998657
N		-0.37401427		0.41886758		0.41423991		2.244793060714644		-0.7824707551676109		-2.371641158619321
C		-1.72796391		0.32129144		0.19032952		0.5629079073442743		-2.507683932665602		0.22731019859537416
C		-2.55750347		1.36442968		0.5348207		1.1901220348331565		0.5151752236138306		-0.017035512223166786
C		-3.88462928		1.17609639		0.40165327		-2.756468653024679		-0.8401315993383701		0.42480449698964795
C		-4.43585439		-0.01032457		-0.0813831		1.753554961434991		-1.6035510460129212		-0.7683571987987371
C		-3.57721705		-1.13187835		-0.43032984		-1.8985699597807415		2.6128561400100434		0.680308898202805
C		-2.24727489		-0.96142147		-0.20939388		0.44774387904621116		0.8929507992196525		-0.6707300478326763
C		1.74272932		-0.11718647		-0.23113325		-1.6076058813249325		-0.10209541966012733		-0.037119170041865726
C		2.52309971		-0.71984702		-1.24658652		-0.15201081567515956		0.8899807637369739		-0.584514789496709
C		3.9033748		-0.69650251		-1.09189764		1.5220856950070298		-0.25514254415973414		0.14049263364199266
C		4.41888719		-0.24953034		0.14563418		-0.17512359292628618		0.14173920727977612		0.5479945322161363
C		3.61212593		0.37472453		1.14846592		1.0758327986614016		-1.067272670770364		-1.1248597242815153
C		2.28325568		0.54565236		0.92971853		-0.6577572384970748		-1.5985390918526274		-2.4025446868631883
H		-2.19761237		2.35189123		0.78241568		0.6236467219067836		0.42675128485174035		0.538265323735419
H		-4.56902654		1.85628658		0.89242785		-0.5041813409293495		0.9357865599434911		-0.32962318500170484
H		-5.46525194		-0.05969654		-0.32945856		-1.6269591915907298		-0.14682114686705705		0.0805086435341085
H		-3.93194466		-2.02641336		-0.90952366		-0.5712666664387788		-0.7441241919172538		-0.20024589295568762
H		-1.64214431		-1.76567298		-0.60138486		1.1247592969935607		-0.2653994458452584		0.35330736421071646
H		2.04662067		-0.98788777		-2.22586417		0.07247579747137825		-0.2245293963024918		0.8324682722163673
H		4.64274469		-1.07380807		-1.87491412		-0.9456768737458474		0.28020262349357755		0.7487065661678846
H		5.45844193		-0.43553725		0.39836802		0.6344872640010548		0.051470553449546104		-0.0889026267413876
H		3.92133268		0.56047254		2.15784054		1.0875040127524038		0.5340591018715707		0.743372195676063
H		1.66755498		1.03635495		1.63151089		-1.2356051575978335		0.5558980003697558		0.9808888509137031
24
Lattice="50.0 0.0 0.0 0.0 50.0 0.0 0.0 0.0 50.0" Properties=species:S:1:pos:R:3:forces:R:3 Energy=-15553.67618882041
N		0.35983558		-0.18367921		-0.50143459		0.27425386219966696		-0.3836552256478068		-0.2769680214996211
N		-0.36274147		0.5158932		0.26486104		0.5448653968722538		-0.1760832314556284		0.4837766551748085
C		-1.71512176		0.2443436		0.16639927		-1.5930878390128689		3.6620457797231807		0.8405166477419558
C		-2.62073583		1.25327962		0.67335788		3.2171547452793363		0.9136773356630346		0.282245981988941
C		-3.95255379		1.12015194		0.51099166		-3.7360610509000267		1.8818757872080827		0.3574051883669314
C		-4.562334		-0.03160881		-0.03839328		1.5403218095441547		-0.25746553583067167		0.2911105284896512
C		-3.6796617		-1.04344665		-0.48711704		-0.811082659198632		-1.8324399533474092		0.041255355056664465
C		-2.31078595		-0.79937739		-0.45238465		1.408427356119409		-3.105756457458221		-0.8444638566772703
C		1.73386238		-0.13138607		-0.25487827		0.7644972016813287		0.770959155158437		1.110370169792046
C		2.62465846		-0.47000896		-1.32215998		-0.786288020551128		-0.10488357530793928		1.2204700505364339
C		3.98227172		-0.50643332		-1.07535648		0.874968658248942		-0.1563938780117551		-0.05833488456528387
C		4.48723523		-0.2887331		0.23093213		3.423680454766954		-1.648552241208367		-3.358214667114219
C		3.69046798		0.12128872		1.21890985		-2.2546348320900527		0.3425006578335339		1.3333411690700896
C		2.28752089		0.2223743		1.03034731		0.18276069479644225		0.3436418162433058		0.6429577632372515
H		-2.15020455		2.18817261		1.1032642		-0.4464792562645096		-0.7761970578611127		-0.21157828707724197
H		-4.69142625		2.0033608		0.8262951		1.5350729025201157		-1.6692162998458788		-0.4369388181750268
H		-5.63472493		-0.06145634		0.05264809		-0.8349155510122336		-0.5342305944498238		-0.33540215064542317
H		-3.9236051		-2.16728715		-0.70538309		-0.3090736947193197		2.0302242207518084		-0.08048725195613153
H		-1.51223164		-1.52830594		-0.77942302		-1.0151005147008227		0.011162392783112297		-0.14257368450912808
H		2.13920402		-0.84433822		-2.20958313		-0.11519369882809377		0.06939150216594751		-0.9483624423790822
H		4.74875059		-0.7317615		-1.84198183		-0.4689459667230815		-0.20223721232385708		-0.122588654206198
H		5.60134674		-0.61921039		0.30625023		-1.5289042604871919		1.0054134723113104		0.46884214557900566
H		4.15305634		0.28584979		2.16727518		0.1294943800822037		0.3033186403346381		1.317747634321996
H		1.72938504		0.54709271		1.97763999		0.004269779533029964		-0.48709949742792014		-1.5741267248173372
24
Lattice="50.0 0.0 0.0 0.0 50.0 0.0 0.0 0.0 50.0" Properties=species:S:1:pos:R:3:forces:R:3 Energy=-15553.035404146045
N		0.4622801		0.047423		0.3801412		-5.278284088358948		0.8964732619191742		-3.448558088623244
N		-0.42699472		0.11575424		-0.66697141		1.4187629335604732		0.16391579446203522		3.7780478333729044
C		-1.8577214		0.25098494		-0.2447474		3.5027621360682226		-0.802274471278361		-1.2125972813540942
C		-2.395244		1.09622668		0.69121116		-2.4348208756419534		0.08207845625641912		0.5654077909100215
C		-3.80790755		1.13015173		0.97540867		1.7543827537962249		-1.2299104727144619		-0.8129783335306544
C		-4.51420447		0.08408687		0.37436535		-0.8057496256804337		1.369114212361279		0.8184175536078009
C		-3.9276846		-0.76738148		-0.51444892		-1.9020617749310462		-0.9774239809241194		-1.3782198769127925
C		-2.66622002		-0.61308903		-0.95282423		1.173507052236662		-1.6418324060880987		-1.2238406638855566
C		1.77378579		-0.04981674		0.03364509		1.5380066854487713		-0.5236702511738135		1.8560536843308715
C		2.37496179		-0.62979944		-1.10660291		1.0275250105845768		-0.6522501412975013		-0.15032262936510138
C		3.79788005		-0.82324315		-1.07709644		0.32502070472465794		-0.8351588287896593		-2.2727171432384057
C		4.60876899		-0.30705005		-0.07017448		-1.603720173176302		-0.6632511716486623		-1.3134568231654264
C		3.97524455		0.25611006		0.98008488		0.6001572266261875		1.284162599787827		4.576233273667729
C		2.58483472		0.26064171		1.19018453		1.1310271321849403		0.6417030134915395		-2.0463505394888912
H		-1.74918902		1.69421517		1.23723534		1.645508157955768		1.7183660727731727		1.2492020250832634
H		-4.25227134		1.8647974		1.6408212		-0.12281485985889205		0.259442611287544		0.3031069871256159
H		-5.57488106		-0.068934		0.39709007		-1.1796267404661387		0.3209547108250962		0.7963511124832984
H		-4.61427331		-1.4315425		-1.05171758		0.04814395738587611		-0.4653104269082439		0.005457732019626518
H		-2.31747861		-1.31853132		-1.73847374		0.3707064818374295		0.5531440918155319		0.21198632114274032
H		1.67578953		-1.05097725		-1.86301434		0.538075884857373		0.22393295180019612		0.029879457870281935
H		4.47188575		-1.37922792		-1.84612283		-1.8101559454767027		0.5802344684408778		0.47470148390632494
H		5.64890225		-0.48175308		-0.0515261		1.6889608291627554		-0.08891080284931631		-0.17217973127339176
H		4.69662265		0.57023764		1.83136711		-1.259371663528819		-0.16683260811008369		-0.8232800752546305
H		2.1621432		0.67085255		2.10601993		-0.36594109646655787		-0.046696580594246244		0.18965587914964685
24
Lattice="50.0 0.0 0.0 0.0 50.0 0.0 0.0 0.0 50.0" Properties=species:S:1:pos:R:3:forces:R:3 Energy=-15553.2852215694
N		0.33144274		-0.60731199		0.27728091		0.022234282736321994		1.7499067203707293		-0.8125535358727991
N		-0.44251624		0.24982716		-0.30136776		4.832507720265995		-0.29890544466945007		0.468339597762734
C		-1.75751075		0.14212561		-0.14170048		-0.4343294570383349		1.6529292871636565		-1.0515755719885067
C		-2.41912645		-1.03621103		-0.32907809		0.6819140893040776		-1.9106413917837508		-0.305665029043988
C		-3.73216856		-1.00408247		-0.00611709		-2.817914315257552		-2.2654798479037566		0.9078677738921617
C		-4.47230229		0.14875994		0.33125329		0.5873892313653031		-0.5887588579985167		-0.6581284543658628
C		-3.84942169		1.37924665		0.23500746		3.107246668827867		-0.09522085555396306		-0.4931242091080614
C		-2.39264041		1.38230778		-0.03456489		-3.7192228965525223		0.015580113589795549		1.466487184072676
C		1.74473575		-0.26121487		0.10059225		-0.19543484479336515		-0.8023596262137696		-1.1433595311548561
C		2.52725155		-0.28388344		1.27396272		-1.2829559296705006		-0.934569502569551		1.8189061807325984
C		3.8869047		-0.07871227		1.18173606		-0.4210128397932285		0.013895321135858686		-2.8913746395364956
C		4.44322069		0.05442419		-0.12467789		2.1076910436040652		-0.1889677491100124		3.2098221134409153
C		3.74516419		0.05495966		-1.26598985		-0.27779715083447876		-0.03368515328974884		-3.388219954771303
C		2.38580072		-0.09454954		-1.21033229		-3.7842764335306387		0.5964383316481272		1.469333806605488
H		-1.83280791		-1.91675641		-0.71766229		-0.6226355584708718		0.4423506817149527		0.6547207142876551
H		-4.27393003		-1.9903845		0.13706415		0.3039285574172943		0.7294784172020775		-0.5794632917703954
H		-5.52128155		-0.02788506		0.52612397		-0.6764588255434485		0.35422365394141786		0.2978875963654204
H		-4.36065009		2.31664652		0.3619849		-0.4677362627040708		0.7580499034920172		0.1850504163929781
H		-1.81162848		2.29333672		0.0872937		0.26408700054548334		0.3186483284803282		-0.3036510839683429
H		2.10280077		-0.57828801		2.33528661		0.2962111342855996		0.6686417978767984		-2.0421115103492027
H		4.47885046		-0.18557077		2.03496579		1.4368372228670847		0.05125967157146055		1.6908916761854897
H		5.51736231		0.06047032		-0.24189275		0.8726398558849481		0.19934369287009604		0.2651840388256777
H		4.28794397		0.10051077		-2.2654617		-0.5823020467276528		0.11206014118684103		0.9334076724906762
H		1.64719594		0.09143322		-2.04279675		0.769389856656751		-0.5442175817295759		0.3013278866091556
24
Lattice="50.0 0.0 0.0 0.0 50.0 0.0 0.0 0.0 50.0" Properties=species:S:1:pos:R:3:forces:R:3 Energy=-15553.201027647467
N		0.36856165		-0.37138585		-0.31515438		0.832499588252396		1.1424226211771142		1.5090218171988388
N		-0.32121439		0.20676671		0.57607169		-2.4547658995803014		-1.203853113901567		-1.1462253341169595
C		-1.80963035		0.04477902		0.29502677		3.854660072969394		-1.162372890165832		-1.8693716385496015
C		-2.53840261		0.86409589		1.06904558		-1.5633018664521114		2.9729697798279973		1.947055308239188
C		-3.90157223		1.02608248		0.71533513		-0.6067273207006169		0.8184085033248106		2.235273602826639
C		-4.48548512		0.23691366		-0.24185627		-0.616881275417127		-0.9336253420810043		-0.8645677747885726
C		-3.74655756		-0.66734821		-1.02274183		0.7879732758036269		-1.3481821419343056		-0.15224452894897053
C		-2.36627582		-0.72857767		-0.79167736		-0.40938348326105617		-0.06792535632152534		1.1051733533172636
C		1.77596562		-0.15395698		-0.06877195		-0.5276585463370214		-0.6098344474017731		-1.4792201609090359
C		2.53935807		-1.00521413		-0.92284457		-5.428517243335396		-0.1538224663571474		-0.6558338990954571
C		3.85011741		-0.9744662		-0.90946293		5.002377572494372		1.901731028225402		0.6051939147985171
C		4.47993891		-0.04431417		-0.01270287		1.088313653125595		-1.3120476015441305		1.015140983863967
C		3.77003402		0.74659721		0.90298201		-0.46627016828171103		-0.880352445342773		-2.912604906503586
C		2.37890303		0.82927394		0.70760862		0.9072032465791893		-0.9400407585916004		1.0830854691927214
H		-2.02665211		1.48736105		1.91632412		-0.8302492045336304		-1.0824302492730518		-1.4191467478345605
H		-4.63029794		1.63466023		1.34588489		1.0032186758420472		-0.32911472364825206		-0.5298301514561218
H		-5.56244947		0.18393665		-0.27576908		-0.8658156339779172		0.301947316773364		-0.3063141811602894
H		-4.1474824		-1.52654097		-1.67945479		-0.025388203514302817		1.559712246539037		0.6672437348430531
H		-1.86823817		-1.56713158		-1.28086739		0.8724681576184455		0.2350937504993727		-0.1408213234651389
H		1.76390361		-1.49333069		-1.59811265		1.416428166237236		-0.25431495748674976		0.2764655765274743
H		4.61673828		-1.33706347		-1.59136091		-0.3766414105965424		-1.078293241505254		-0.6096229484589383
H		5.60825117		-0.10222516		0.10992966		-0.9340819699955131		0.23287550556963488		-0.3965951248634437
H		4.3722857		1.41530153		1.44703809		0.5487983104742087		1.314365399586761		1.4562772307301637
H		1.85477221		1.52083615		1.31823542		-1.2082585448353258		0.8766834811873465		0.5824677286128496
24
Lattice="50.0 0.0 0.0 0.0 50.0 0.0 0.0 0.0 50.0" Properties=species:S:1:pos:R:3:forces:R:3 Energy=-15553.34599825537
N		0.38980897		0.18127603		0.55074853		0.5439965697051887		0.4074630749169979		-0.36841048674927535
N		-0.44213465		-0.16721716		-0.33196606		0.5030598257474315		-0.24646491685601027		-1.2997648762865361
C		-1.81892282		0.06770121		-0.17558732		1.036258739358428		1.3482900768433772		1.9084786312593902
C		-2.34158338		0.94414857		0.79061455		0.7358969704584826		0.11091476616794865		0.8944094888650204
C		-3.69480684		0.98712891		1.05223695		0.45584434512105615		-4.041970848961252		-4.197744319789612
C		-4.52753215		0.108353		0.28376976		1.5328611881923087		-0.7086937224060705		-2.584046980947485
C		-4.03373322		-0.60926189		-0.91053436		-0.5426339878945302		1.847900304953771		3.0191375873541255
C		-2.67468387		-0.52953593		-1.05662795		1.2775716797781076		-2.0182150608664196		-2.736434566074176
C		1.79294735		0.0333315		0.15926635		0.0488095645621598		0.9527117204206517		1.6996022650312408
C		2.29369329		-0.68649538		-0.96157521		-1.5607451100853007		0.010200645949209806		-0.4540901843048813
C		3.63786659		-0.87994883		-1.13391486		1.6182886091095612		-2.078855350757285		-1.204945267085829
C		4.5253831		-0.45528811		-0.14279087		1.243129079508549		-1.2243220772341636		-2.334286424109396
C		4.14295202		0.39670698		0.79748879		-2.989394295105197		2.5155196265409194		4.417889316781884
C		2.73900658		0.67084549		1.06604205		0.6552908306939791		-2.402367486436004		-3.4074663585692773
H		-1.5854236		1.47395829		1.36009861		0.2241888794049832		0.5093495667374125		0.47694446284809866
H		-4.28617654		1.49366162		1.67210508		-1.7629848935122796		3.005178862815273		3.5775716724215894
H		-5.57505283		0.02466785		0.45950009		-1.3296931851161409		0.15245618215799275		0.49376688204449476
H		-4.63867995		-1.16536323		-1.6143666		-0.5770029003486057		-0.22584107027133019		-0.17640287099578442
H		-2.08979985		-1.0043214		-1.89272232		-0.7094050952179299		-0.06508541865683161		0.291993445301826
H		1.59135231		-1.14144702		-1.68296623		-0.15657231256843807		0.19598670636752125		0.2210359870682513
H		4.12944971		-1.57397464		-1.95126557		-1.3349285681377565		1.2302619939333337		1.1383950909802611
H		5.52857117		-0.84833021		-0.18875214		0.932230158682756		0.035121937136515104		-0.023403569014251134
H		4.75379491		0.7696128		1.63566388		0.6523215665422369		-0.07919943782426744		-0.37208037650182596
H		2.41547179		1.20792907		1.92276808		-0.49638760745698696		0.7696599767507728		1.019851604738335
24
Lattice="50.0 0.0 0.0 0.0 50.0 0.0 0.0 0.0 50.0" Properties=species:S:1:pos:R:3:forces:R:3 Energy=-15553.780823119749
N		0.37812347		-0.14273295		-0.35163834		-1.701195629058151		1.3547853518169495		2.4734845587514065
N		-0.35330982		0.46171967		0.58203826		1.5495915618969287		-1.0969481373189278		-2.790075027714762
C		-1.68406507		0.35586702		0.21516795		-1.397759643577014		-1.7540156002703697		-0.4875253749490868
C		-2.60497932		1.31051985		0.70825748		1.4876326046367325		0.02175595471146175		0.8579066636636161
C		-3.93910331		1.14088244		0.51958409		-1.6676256611882783		-2.18182407130391		-0.7698807316648475
C		-4.38331078		-0.09169828		-0.1424562		-2.5835701441624352		2.86867267314224		0.4164551995546333
C		-3.55040421		-1.03057845		-0.68327532		1.7945866819420835		0.11028088640419331		-0.8158801833585315
C		-2.15857214		-0.82359474		-0.53743371		0.7053378671888695		1.0006139941130379		0.8365911903390554
C		1.73768335		-0.15137094		-0.08953151		-2.0225715379967313		-1.9113345611855044		-1.0248561026995742
C		2.37886548		-1.09668855		-0.9463733		1.7194654764682396		2.187546884055439		0.8491106113500821
C		3.77891661		-1.01078824		-0.97449364		-1.9769429936394607		-0.1082856075372156		0.6849189889450938
C		4.38297049		-0.12517778		-0.09609719		2.1400000396586703		-0.5290469934450897		0.022792520646221226
C		3.70849496		0.61075066		0.87076956		-0.334460098461437		0.5015268826438937		0.4547439129847404
C		2.31086638		0.58375082		0.92033702		1.483025444952003		1.1752845586691865		1.0259244474689244
H		-2.25756302		2.12287128		1.37623254		0.23753907525686607		-0.03390760513188444		-0.40237604454553494
H		-4.60968042		1.8861089		0.97020884		-0.41353010695453124		-0.19560356058024606		-0.2577965910686904
H		-5.48382663		-0.20543158		-0.40701821		0.8544873021992959		0.1861996480665538		0.6248617223982261
H		-3.9986746		-1.76213476		-1.37657119		0.30293030091905604		-0.4050859872363685		0.36057145043989897
H		-1.32717581		-1.48704278		-0.8995839		-0.8478331844748321		0.2860138307704487		0.14848624467107763
H		1.77272281		-1.67580274		-1.60374769		-0.6478882134285705		-0.6959390968814219		-0.7411780676936116
H		4.35143129		-1.66147492		-1.58341974		0.9335976255893468		-0.800123023607739		-0.9757174369377686
H		5.49169226		-0.18055		-0.14588296		-0.18931896179650942		0.5631208975269202		0.3029038699789595
H		4.23290215		1.25723196		1.57832817		0.3982987377922353		0.02537066859100919		0.16277679577888596
H		1.75310808		1.18343464		1.69693894		0.1762036619258738		-0.5690579345905934		-0.9562425649163518
24
Lattice="50.0 0.0 0.0 0.0 50.0 0.0 0.0 0.0 50.0" Properties=species:S:1:pos:R:3:forces:R:3 Energy=-15553.200746393519
N		0.37927944		0.08235807		-0.75306656		2.4371168707301076		-0.8570658615205835		0.47449826391554367
N		-0.33812667		0.49227615		0.14830213		-3.885645465136672		1.1205381113095407		1.569344987230608
C		-1.80481097		0.4091105		-0.05594317		2.825880724015604		-0.5659901457672073		-0.9957745095501834
C		-2.51901192		0.82409077		1.02583382		-0.8784576451858123		1.1130005111302153		1.1891723207618659
C		-3.85798526		0.57612142		1.16584161		-2.1792801190306474		-0.8945318219515761		1.1410041435845784
C		-4.54087071		-0.12095703		0.14852509		1.5309941559490678		0.12259292223738091		0.598634259402764
C		-3.77501605		-0.62556454		-0.93283791		-0.8192410779378522		-0.01602198337238252		-0.09129791783212235
C		-2.41266518		-0.3610182		-1.06455126		-0.28443039120159025		0.2711956378798957		0.6315958014297914
C		1.7222058		-0.0405709		-0.15673355		1.2697827285575523		-0.589193374426174		-3.0675019396996395
C		2.52783618		-0.91465534		-0.99175877		-0.7220181558046685		-0.4046694685305668		0.9430817565204529
C		3.86988023		-1.06728894		-0.74347907		2.538521434981291		-0.3464840164787471		-0.7340461875869745
C		4.55639633		-0.46373766		0.30654401		-1.652524595532217		2.337080801826764		0.4112813173197012
C		3.77256111		0.49126183		1.0381787		0.20829452559158837		-0.4480307113105275		0.9872388071388069
C		2.38534701		0.73695537		0.85040441		-1.1507878594514869		0.5571344952833001		-0.10682434678872565
H		-2.14798648		1.41332567		1.83145398		1.435249926643543		0.446428656955064		0.82804731181975
H		-4.36454227		0.69640347		2.2129516		0.6296946249370876		0.3595343702845151		-1.8151485649415176
H		-5.56193436		-0.32956234		0.39826656		-1.1140814543048643		-0.5758119653823873		-0.5181133774177937
H		-4.2385639		-1.31125806		-1.64830947		-0.25370360058634517		-0.0190328479726423		-0.28258269365382865
H		-1.80506541		-0.80960062		-1.8423823		0.28716902740326805		-0.16891149925059643		-0.42244694969274765
H		2.22167228		-1.68969458		-1.73793116		-0.9378693077386873		1.1380733945576074		0.05012267834874665
H		4.51527142		-1.51488373		-1.53351055		-0.4103897101789733		-0.5772131651619419		0.32679754267037076
H		5.6464535		-0.3950136		0.43072926		0.014068767752484525		-0.5370367478194913		-0.03299954293117417
H		4.31108805		0.99477249		1.86502231		-0.2557054614773159		0.30253882475766486		-0.16627365029131022
H		1.75895039		1.58852615		1.39739347		1.3673620570055398		-1.768124117277124		-0.9178094583349001
24
Lattice="50.0 0.0 0.0 0.0 50.0 0.0 0.0 0.0 50.0" Properties=species:S:1:pos:R:3:forces:R:3 Energy=-15553.372530642931
N		0.33957954		0.12398787		0.55977704		1.3739680436795556		0.791221144689694		-1.1800242844308981
N		-0.36922331		-0.54586505		-0.28233145		0.0316046680653003		1.6628683490812104		0.24180566662202443
C		-1.70923494		-0.10485376		-0.2384761		-2.2273378416178042		-1.2716616907192804		1.2657413658259016
C		-2.17168376		1.18577549		0.16906209		-0.13443146371957804		-0.40047126850845977		-0.8200981294526173
C		-3.5741813		1.43809714		0.26625389		2.4320721092939737		-0.2703330842044489		-0.2738204770573833
C		-4.48644914		0.4168894		0.13208114		-1.4895418543932404		1.3214118162256157		0.2236971816438874
C		-4.07333733		-0.83511196		-0.12109341		1.8855564241716838		-4.136292024110683		-1.0629394364122773
C		-2.72172763		-1.13702056		-0.38352996		1.5572759206424713		2.0179592361057574		0.4442488243059724
C		1.7552737		0.1915344		0.24537283		-0.724700536270032		-3.3743394946114913		-1.1355083078166803
C		2.24050789		-0.36662868		-1.08277883		0.7318241888466782		1.965932861583247		2.8046867096025374
C		3.59645953		-0.57213395		-1.31289106		-0.6720342141803975		-1.0773327802229127		0.6497578167749335
C		4.45376997		-0.38933683		-0.18847377		0.7885559906152497		0.8424331480092685		-2.8227514858275966
C		4.02726673		0.25748906		0.92809968		-0.6973288809631136		-0.2893694288773374		2.18617062397617
C		2.67229934		0.37778905		1.30439299		-0.7394732720573837		0.5282522654700075		-1.0901859304192052
H		-1.37617282		1.93643791		0.25454853		-0.235621700814492		0.4054386397406141		0.24949007678962967
H		-3.91944204		2.42955228		0.38936216		-0.43055687742708243		1.5922852948842952		0.40862953298149257
H		-5.56718051		0.56779885		0.17107672		-0.2791184921510568		0.4276146098581238		0.25331515832663826
H		-4.729388		-1.71649538		-0.14488406		-0.485110080676061		0.19067511584936248		-0.05883768949186777
H		-2.18007555		-2.05943891		-0.56318543		-0.7246274140972356		-1.114478432626937		-0.2460399649319676
H		1.58922684		-0.46612461		-1.90026223		-1.6201080759450406		-0.2606099949491627		-1.1568153993450627
H		3.88760851		-1.03765531		-2.29337084		0.19077837135075135		0.44393437839412325		0.6846273230069079
H		5.53555404		-0.4088177		-0.34877127		0.3458718882474059		-0.4168141769725594		-0.009403706825442453
H		4.80753023		0.51186787		1.61845356		0.5966491621041503		0.2609081914892793		1.000892341737051
H		2.25747967		0.594362		2.32208585		0.525833885873235		0.16076747868886082		-0.5566377581600847
24
Lattice="50.0 0.0 0.0 0.0 50.0 0.0 0.0 0.0 50.0" Properties=species:S:1:pos:R:3:forces:R:3 Energy=-15553.085447265026
N		0.39188644		0.28548198		0.35373751		-0.890465570941702		-0.42378736859449256		-1.2758317114511677
N		-0.34738495		0.03852989		-0.66912084		-0.6816339933299416		0.5899860969408209		1.0296711617827674
C		-1.77141779		0.22018678		-0.35781535		1.8784257781945448		-1.1855741133643634		0.46657057597051277
C		-2.21313437		0.70189157		0.86603979		-1.1886790803388967		1.0819487845023823		1.1964371268999228
C		-3.59004891		0.70735687		1.18223479		-0.9473032507368472		0.3201546863775821		1.17473542246434
C		-4.51937831		-0.08519575		0.40887176		4.915918676426543		1.447357816888825		-0.2932978173377973
C		-4.04415263		-0.67602615		-0.74446781		1.6044583883047574		0.13417677024428964		-1.618166841665692
C		-2.67435788		-0.43894126		-1.1572673		-1.969729660985911		-0.9810688795543219		-2.765890408994039
C		1.74441632		0.00772682		0.17332922		0.7968011583738139		-0.1810857239564323		0.09543502844404507
C		2.32034595		-0.82924729		-0.86223387		-6.7935462299457585		1.6010256571042016		0.6049493000474679
C		3.61051681		-0.87465786		-1.02369708		5.028811340804362		-2.0381778768383736		-0.7658608119332363
C		4.52662381		-0.27000456		-0.14152931		-2.4967187949140284		0.8003197129965898		1.3977926051190412
C		3.96534769		0.54117136		0.91279072		2.9315542964688803		0.6628229801346857		-1.0411134448517658
C		2.59081789		0.67132987		1.09786636		1.9336753904352117		-2.905648221363698		-3.6991563108585557
H		-1.47022765		1.09498577		1.58016634		-0.10812301097576556		0.20573242133028313		-0.15351573375466498
H		-3.94700245		1.35330852		2.08958215		0.5088752496334231		-1.3348873790657383		-1.2420150205256855
H		-5.46305665		-0.39179702		0.54780795		-4.363822411977445		-0.3056918713605841		1.7103118351324655
H		-4.78514667		-1.24876992		-1.37208585		0.8541464767694127		0.2894847171413384		0.2435109250568143
H		-2.35745279		-0.70090639		-2.22686467		-0.1957124210864414		-0.13981586787815847		1.31160650309248
H		1.5468723		-1.23547052		-1.58424891		0.8270848964990356		0.008467619600699848		0.6334025670158472
H		3.95932261		-1.61576889		-1.77092885		0.3755362476304818		0.4138836850559006		-0.13986836980391448
H		5.56749434		-0.49319272		-0.17072868		1.3049189096053646		0.08157220605165141		-0.26594179433786225
H		4.77125048		1.25089503		1.35030592		-1.4277961444260021		-1.0757945920690053		0.26619936744864753
H		2.20803227		1.34980744		1.72036199		-1.8966763937532791		2.9345987396759172		3.1300357956179674
24
Lattice="50.0 0.0 0.0 0.0 50.0 0.0 0.0 0.0 50.0" Properties=species:S:1:pos:R:3:forces:R:3 Energy=-15553.656982717439
N		0.37826895		-0.41549759		-0.33086911		0.47318453306420744		-0.8925246645881736		-0.7846157750804277
N		-0.30159575		0.33019187		0.4053525		-1.1675264092640356		0.21955086648278707		0.2965535537994186
C		-1.76253541		0.20311732		0.25811565		1.107379051263765		0.4112632167537207		-1.2058699386127087
C		-2.51512947		1.38293931		0.43629825		-2.1986324522772587		-0.6173338924107649		0.4348783875549316
C		-3.96948983		1.23212685		0.37230561		2.866741311898881		1.9260526867425405		0.06595260031789837
C		-4.5953513		0.08957493		-0.02068084		-1.5307066037758774		-0.9506214650043385		-0.7333544065809063
C		-3.8023922		-0.98113725		-0.51316763		-0.17080413968093464		-0.049466738520202565		0.4477114317248086
C		-2.40176969		-0.93690987		-0.33648384		-0.9590822968927959		0.46539136523453184		-0.06957276493606493
C		1.81808138		-0.35025729		-0.16330953		-2.54454105587725		0.4708833957698089		-1.4572827377392068
C		2.61053437		-0.55014902		-1.32533529		1.1544341978994377		0.477808250653044		3.2934103214507098
C		3.97069509		-0.30102562		-1.13866103		0.9048417912055431		0.1501103590913298		0.8741206055951046
C		4.55950813		0.10847509		0.09418844		-2.01628179700675		-1.2830299260183586		0.7280194190243352
C		3.69212486		0.13494862		1.24804615		1.3927088143375121		0.8595716586235118		-2.640137086798809
C		2.30899918		0.01996379		1.05317457		2.2064233061141243		0.7503201904873981		1.879452831047752
H		-2.13406021		2.42332519		0.58780853		0.28119095553376394		-0.8397245422920582		0.2083159685916278
H		-4.5212446		2.16063458		0.45978879		-0.5475294710833868		0.4216500105689802		0.41035263487195067
H		-5.74014378		0.13101086		-0.06213807		1.3077044941500544		-0.4483367240041356		-0.12126880412943088
H		-4.33348164		-1.81077282		-1.0434815		0.5681393822891443		0.18582694095795493		0.3373767578432981
H		-1.82482076		-1.72456259		-0.81294656		0.6407075852067357		-0.34928106814336196		0.23097242646062044