21
Lattice="50.0 0.0 0.0 0.0 50.0 0.0 0.0 0.0 50.0" Properties=species:S:1:pos:R:3:forces:R:3 Energy=-17617.905992538803
C		1.66928557		-1.41967138		-0.9209519		0.29560995895355907		-1.375665743071166		2.1366504579330874
C		0.77308105		1.00796316		-1.55861069		-2.132512473146103		1.3802789191372016		-0.45524579231420026
C		2.37587797		-0.70027618		-1.89092795		-1.199981649664233		-0.6146928552836071		1.2008206520350804
C		1.89895527		0.58086302		-2.18834337		1.6053770434503312		-0.9895287858456551		-2.1810045578947292
C		-2.39610886		2.71453111		0.74464764		1.28504968178706		-0.8755844374467167		1.5852797587850844
C		0.48910713		-0.99239519		-0.20207471		-0.014950810389597792		-0.3714757044695392		-0.20968842343827576
C		-0.00693712		0.22953078		-0.6171975		0.21051395322876235		2.8740606768451915		-1.295281592350236
O		-1.47296655		-1.4396753		1.21805823		2.1849961954919963		0.03128770247239141		-0.4443121248648418
O		-0.16806825		1.89694865		1.53409218		-0.040433373388486564		0.15976289727694193		0.3184503021178538
O		0.33309681		-2.77150672		1.43061903		0.492491820584117		0.4554479838637327		0.5348913165301751
C		-0.30238597		-1.70976334		0.87791964		-1.6809847530569642		-0.18011153298341823		-0.3056493453149424
C		-1.13686899		1.82800253		0.83535273		-0.28544834234974475		-0.4759002350260349		-1.1721080636057926
O		-1.20469665		0.83574847		-0.25408234		0.252892571817468		0.7044463628922665		1.1069650522390229
H		-0.13523997		-2.86679123		2.29715602		-0.004442351974594246		-0.43708696513692985		-0.4394826161821017
H		2.11722887		-2.35547971		-0.49075552		-0.30024817756400507		0.2501104839730245		-0.6488306769890563
H		0.3746642		1.93521954		-2.07473494		-0.24711329764137502		-0.5508496393892511		1.1945494744096417
H		3.17291605		-1.21713283		-2.40062743		0.7729852872628815		-0.035451346868535606		-0.35372007768389735
H		2.33486878		1.0559172		-3.13101597		-0.4604685769305171		0.1337729527879117		1.2855398883083449
H		-2.55700788		3.41624469		1.62361319		0.45105396862783637		-0.542016100392195		-0.9070542768642873
H		-2.29957654		3.15931672		-0.22695153		-0.13587698931695988		0.9941478240268091		-0.91169074712461
H		-3.2068369		2.00992993		0.67105061		-1.0485096857814311		-0.5349524059403594		-0.039078659153381975
21
Lattice="50.0 0.0 0.0 0.0 50.0 0.0 0.0 0.0 50.0" Properties=species:S:1:pos:R:3:forces:R:3 Energy=-17618.36112303955
C		2.15443235		-0.96447515		-0.09848933		-0.4534744051071067		0.6128534881099617		-0.4644265330768826
C		0.88109074		0.99329355		-1.7004251		0.520593154957125		-0.1953830113544209		0.7928145087166043
C		2.74488504		-0.52424054		-1.28486638		1.9853762118803853		-0.8268324141724326		-0.23865544823253967
C		2.13247884		0.42547453		-2.095142		-1.130923722417364		0.2595403646282513		0.6700384725148579
C		-3.16028991		1.4927246		0.61694581		-0.005764824576546033		0.22884571280203414		-1.7291789497978485
C		0.92391939		-0.44690762		0.3535379		0.08007566976832446		1.7891471533325625		-1.8738544596873399
C		0.3659945		0.66974412		-0.39237468		0.07244427574709968		-1.361693597374015		-1.1501928033448772
O		-1.04280533		-0.95642915		1.64493143		-0.4909160429025628		-0.2907589044266547		0.055697241294247454
O		-2.2794485		0.20576973		-1.3035975		0.5133530828311041		0.5743250964468		0.5889650090468573
O		1.01172516		-1.76625028		2.21670171		0.49254262558181233		0.19473838437961466		-0.6090960780071303
C		0.14375133		-1.05866416		1.42634128		0.8999826119927724		-0.14661494439665398		1.153291805360167
C		-2.06946589		0.89444694		-0.33266463		-0.5409354657499205		0.23184691005455435		0.7491420081926662
O		-0.74904967		1.25246097		0.15238586		-1.4191970900336939		0.18103599882204835		-0.8119374995647121
H		0.53759284		-2.36905236		2.78857768		-0.8502758867071407		-0.4590988474531787		0.7505959670082889
H		2.66199362		-1.71693497		0.45691908		0.37973537324971274		-1.011884681759659		0.781246447282866
H		0.36599222		1.66358634		-2.42265633		0.03483011693214165		0.01736965278493219		0.6440242568123538
H		3.77579542		-0.98111863		-1.59127681		-1.633744229886178		0.7566681926741292		0.44265983115437
H		2.64387208		0.72796759		-3.00328569		-0.0630515732430204		0.19962312035742033		-0.6093914463338124
H		-3.57933138		2.47674348		0.30275696		0.5693095941641975		0.07753372295549756		-0.5780427572953616
H		-4.10152078		0.91601019		0.64498313		0.3577637029862957		-0.6831257987835236		-0.0030682516219480197
H		-2.79185514		1.70639183		1.59167782		0.6822767691105		-0.14813559762726747		1.4393685767350481
21
Lattice="50.0 0.0 0.0 0.0 50.0 0.0 0.0 0.0 50.0" Properties=species:S:1:pos:R:3:forces:R:3 Energy=-17617.669388275604
C		2.25683233		-0.30753899		-0.2384044		-2.2100963840345464		1.250576433968284		1.8033173768142496
C		0.71203934		1.8363625		0.85310127		-0.9639111885107865		-0.0185546742139694		0.6660571707521425
C		2.77415058		0.9578606		0.0611091		2.072697713045724		-1.560378316513883		-2.2550088247502127
C		2.06951006		2.0340808		0.53664213		-1.0681596499254717		-0.3309391784237886		0.8196416043822337
C		-3.40371283		0.476268		0.22761783		-0.947946437893905		0.552697954001762		-4.403556599582872
C		0.88643149		-0.5242168		0.13801182		0.2466890142041441		1.108433974874817		-0.8704603317682311
C		0.14884942		0.55723524		0.62422003		1.340666087599144		0.45328362925543686		0.5669361574500018
O		-1.01433099		-2.08042168		-0.33431617		-1.0084742163121416		0.7190783050726449		0.6981758023315774
O		-1.52655816		1.10412451		-1.07037556		-0.3114102103926802		0.47325199881013486		-1.1346709509518316
O		1.08825092		-2.51344284		-0.93504942		0.005002801033178603		0.1483388690401112		0.4544118807275352
C		0.12838563		-1.68842811		-0.32160155		2.204515701863615		-2.5120818559782445		-1.3810997180979432
C		-2.00429476		0.64003987		-0.06444265		1.867764133455519		0.3408433761830049		-0.8106998733657939
O		-1.14644343		0.29626042		0.94248482		-0.954450454618093		0.19638918685027562		1.2791460690639758
H		0.6672939		-3.38456826		-1.00629628		-0.3451627265842315		-0.28842876508903725		-0.3314127241968414
H		2.79063088		-1.11175561		-0.66937518		0.9565809735093003		-0.9336045161457145		-0.6412621207281389
H		-0.03660198		2.52441922		1.34321395		1.0013166251742818		0.03732352131802081		-0.4995328379064145
H		3.8015379		1.14280965		-0.34277993		-0.2524279734832805		-0.042027765856645714		0.5884984052522345
H		2.74017354		2.86412614		0.69221737		-0.42711108502266565		1.307838140090348		0.31295991708857496
H		-3.87008816		-0.07946934		-0.67005043		0.5109016902702421		0.9651725202804917		0.6426280449728564
H		-3.55707473		-0.1984036		0.95548584		-0.9350522528917813		-2.10000200545084		3.933379897217239
H		-3.79573823		1.49325167		0.23396919		-0.781932211907628		0.23278927077091519		0.5625516552956578
21
Lattice="50.0 0.0 0.0 0.0 50.0 0.0 0.0 0.0 50.0" Properties=species:S:1:pos:R:3:forces:R:3 Energy=-17617.612163566744
C		2.17576978		-0.407653		0.49923689		-1.121071460941217		0.09084370675454866		-0.923107627694761
C		0.92862136		2.04837185		-0.29426424		1.8668551970797471		0.07605847540602266		0.5422748047883542
C		2.91137117		0.77316925		0.45518659		-0.09006707934544696		1.4259745692859624		-0.6394659480869469
C		2.35002606		2.03298586		0.01717502		-0.4691939239081896		0.24930367181326776		0.0005669282384523853
C		-3.53733991		0.30267111		-0.34105899		0.9180086674048108		0.71495482130727		-0.32913698940129055
C		0.85718834		-0.41044438		0.06467569		-1.195771982522201		1.795583961421135		0.4360860346914445
C		0.24186219		0.86638744		-0.21957943		-1.08608831195124		-2.6578250421502734		-1.0950656784569537
O		-0.95759461		-1.9850992		0.20984703		-4.461474399799667		-1.1933169389949057		1.4995402573708554
O		-1.79721131		0.45430974		1.35384855		-0.46940465152008787		1.1702856142906914		-2.020552399292779
O		0.94357195		-2.53486179		-0.84614755		-0.5776536465488429		-2.1025592760382756		0.12998376385048957
C		0.12717653		-1.7024788		-0.0955093		4.126011879652934		0.5704255557633715		-2.3694823061717067
C		-2.07435102		0.64878518		0.16178555		-0.4278949629425721		-2.0101496132160994		1.2973955019152736
O		-1.07589521		0.81705083		-0.8024627		-0.3047944535267999		0.5717239114180368		1.237510653543783
H		0.5054037		-3.48016497		-0.93172536		0.6949171348123966		2.307980902423143		0.33814983713009117
H		2.48911745		-1.43237036		0.65209543		1.246731143560735		-0.22521747492006378		0.45033272277998765
H		0.30676685		2.87748741		-0.64107347		0.3971083170466414		0.5941811602171189		-0.03989344173281762
H		3.96519984		0.60863548		0.61378617		0.9319120103824107		0.5745838522650215		0.31708797741750744
H		2.94958086		3.03696827		-0.1286004		-0.8180091081658029		-2.006510371012766		0.41946652695345504
H		-3.59249831		-0.75627126		-0.66410186		0.4526891387915142		0.0444871288371865		-0.29466533566645065
H		-4.11472495		0.30098783		0.56949865		-0.49689709725168857		0.17641444095983447		0.8973239885202585
H		-4.10744397		0.9427901		-1.07313118		0.8840875896925657		-0.16722310725228845		0.1456506778816917
21
Lattice="50.0 0.0 0.0 0.0 50.0 0.0 0.0 0.0 50.0" Properties=species:S:1:pos:R:3:forces:R:3 Energy=-17617.89547471474
C		2.37251335		-0.52241846		0.20495018		-1.4114773014871265		1.9401925197853231		0.3327845619787401
C		0.70520377		1.84994896		-0.09451632		-1.8260680913237035		0.7951759126681881		-1.3623663007949163
C		2.85664871		0.85063627		0.37207451		-0.4307432824034443		-1.0890197294650228		-1.1380215096966007
C		2.04896108		2.02385814		0.11004749		2.0532272118996158		-1.6255617456217337		0.452086163687288
C		-3.6324247		0.32023797		-0.19393422		1.333707088466446		-0.3162639902888942		1.5163918328766577
C		0.96039711		-0.64482485		0.00133976		-0.10550794199014234		1.695341895735638		0.22625440080926035
C		0.12590724		0.59652771		-0.13345474		0.9951671121485872		-3.5544854803767465		0.5916877044091773
O		-0.67592671		-2.43016268		0.45127997		2.1130216602853285		0.5147245606585655		-0.7040236735389714
O		-2.09727603		2.24091432		0.313252		-0.6846632156064941		0.76021230406194		0.3642992928568247
O		1.35413326		-2.87290858		-0.54564588		-0.753969871369408		-1.2724007286007348		0.819642118602858
C		0.42781204		-2.04075997		0.01800812		-2.005944522637625		0.1689915119797603		0.08143449776842462
C		-2.27475321		1.10514529		-0.03364848		-0.17993993756104043		-0.7142916823899838		-0.4541477770148194
O		-1.18920214		0.2993477		-0.35679601		-0.7661921757036295		-0.4896521400297355		-0.2961389891319897
H		1.01531701		-3.77970188		-0.28002436		0.3227239383055671		0.6315092066766348		-0.5047890468633204
H		2.9118842		-1.52201929		0.26452466		0.0627264315421828		1.5001533626213828		0.0652682240888224
H		0.06359375		2.65877503		-0.49732843		0.252589233071107		0.07913865694645784		0.6303867658975927
H		3.93390661		0.90271456		0.47284856		0.6539933492143754		0.5247059429335114		0.256974660822575
H		2.45885801		3.04530462		-0.04204352		0.2255168541676166		-0.4550314651579308		0.40100436102982356
H		-4.19275462		0.68953798		-1.06184845		-0.389774399656659		0.660745837344296		0.06945254015406932
H		-3.367764		-0.74189542		-0.51328881		-0.34316415670525735		0.7071957977270577		0.9421301398328519
H		-4.20006995		0.44405083		0.85676879		0.8847720173437044		-0.4613804957859108		-2.2903099677743475
21
Lattice="50.0 0.0 0.0 0.0 50.0 0.0 0.0 0.0 50.0" Properties=species:S:1:pos:R:3:forces:R:3 Energy=-17617.285693499136
C		2.43344076		-0.25154762		0.15256		1.4666076145429219		-0.3522730608467046		0.2605480313639169
C		0.48833596		1.13408255		-1.38609572		-1.565798304739675		0.5533887579886435		-0.6565132873844759
C		2.79027709		0.75972824		-0.76625537		-0.4213764966188371		-0.35957216550041193		-0.40025503873588
C		1.83580481		1.36421595		-1.60850789		-0.11069869066155619		0.4620190035352861		0.6339790597579142
C		-3.58390406		1.08530896		-0.18046374		-0.45021856580136044		-2.029646185347868		-1.4284338808444408
C		1.09498878		-0.55423826		0.29476181		-2.956205724672476		-0.15080630528445582		0.716030879385987
C		0.13661834		0.26973277		-0.35530053		-1.856316039693464		-1.3552959214749627		-1.4605024273350542
O		0.69379679		-2.07228135		2.21849657		-0.004079775012296942		0.5611404796359889		0.07789378023673506
O		-1.60853221		2.03930875		0.4314356		1.855222035314954		1.9858381362673254		0.7882811911135454
O		-0.22284187		-2.50873629		0.17107002		1.989039622453068		2.6651202387272357		-1.20844268724094
C		0.49779682		-1.7298185		1.07484304		0.06774373359697079		-1.4843990825060873		-0.723761620831855
C		-2.08316242		1.05744081		-0.04451955		-0.6483586224558143		-1.5016178115377443		0.5933137214457397
O		-1.32085031		-0.0549981		-0.38604678		0.9805189205964762		0.7106348024192316		0.6766038871816048
H		-0.86465571		-3.11154549		0.48344971		-1.2178114784859826		-1.471621471319526		1.6250385775584217
H		3.17732228		-0.90209503		0.72826181		-0.6070871722936046		0.9524563070364892		-0.7135270363214317
H		-0.37757459		1.57648415		-2.03823931		1.6583473213510758		-0.536052580966363		1.0492565398163776
H		3.80975371		1.02748374		-0.95782993		1.14894972640734		0.06788164756844738		0.09510818981514682
H		2.04883382		2.12230624		-2.36224894		0.6879012628786344		0.05796037768449941		-0.2883117798969757
H		-4.20120018		0.3219497		0.43358813		0.8766079935996779		1.5094150931324155		0.14151567557432917
H		-3.72660409		2.19603767		-0.17807642		-0.9757873195206309		-0.8021649422853542		0.4430694078817417
H		-3.85892863		0.63704333		-1.16879911		0.0827999077925177		0.5175946830739143		-0.22089113111834474
21
Lattice="50.0 0.0 0.0 0.0 50.0 0.0 0.0 0.0 50.0" Properties=species:S:1:pos:R:3:forces:R:3 Energy=-17617.936438585628
C		2.15573401		-0.38831936		0.37527266		-1.833747307863002		-0.1400854223294934		-0.26136641348772366
C		0.93293135		1.98801783		-0.42340635		1.7373933157410086		1.2383920276940843		0.7249391860618376
C		2.85851837		0.77744159		0.48014826		-0.6660777395771204		1.3962770426726097		-0.3874993333479199
C		2.2523445		2.00072205		0.03366939		1.6028868272323236		-0.4570811485669751		-0.9331715938019928
C		-3.25828703		0.1864979		-0.19715315		-0.25262090906157286		-0.25864140413259373		-0.8332229424048052
C		0.78804673		-0.33777427		-0.02954015		0.5172563259030284		-3.9921308376897633		0.22297495877685208
C		0.22169772		0.83594748		-0.3480484		-3.351290737828108		0.8721518090902858		-1.5885012481531173
O		-1.16890762		-2.01778929		-0.16345287		1.982621120618725		1.4043343656370635		-0.23832254180027293
O		-1.66156171		0.74595596		1.45497629		0.7426675591543838		0.37828547677702307		0.08277692213060493
O		0.98641579		-2.67185421		-0.39916046		-2.1706229062857143		-1.0973188903891538		0.4556753208018005
C		0.0276638		-1.67304553		-0.23748189		0.18443777394101246		-1.1931016348194499		0.8057590873399234
C		-1.96656347		0.64164353		0.29035543		-0.48294978841069836		-0.2547431490007265		0.5013803297659264
O		-1.1514073		0.81275128		-0.79494192		2.272942011917476		0.5236784787038046		0.8148402235676508
H		0.38511533		-3.51128146		-0.26808428		1.3764308005162178		1.5488797262865073		-0.5075948402785508
H		2.60162537		-1.34531241		0.5757402		0.32145823566055426		-0.6976006465631338		0.2869541346043118
H		0.55869475		2.91258485		-0.80381816		-0.8387058712350296		0.7975374194638967		-0.49761536061991557
H		3.84177581		0.65334518		0.88137628		1.2724125042530348		0.5499280017640555		0.15720130723626116
H		2.90418588		2.86079278		-0.30819085		-0.5059305652275295		-0.41390703067225054		1.0139127164804136
H		-3.006299		-0.70621298		-0.77341952		-0.20469107314371632		-0.2824380433921719		-0.6079819161801416
H		-3.82301177		-0.15281405		0.63689388		-1.188557210050903		-0.06450028700827382		1.08134694068353
H		-3.71956949		0.95706844		-0.81754297		-0.5153124690984954		0.14208419789671733		-0.2924849373746721
21
Lattice="50.0 0.0 0.0 0.0 50.0 0.0 0.0 0.0 50.0" Properties=species:S:1:pos:R:3:forces:R:3 Energy=-17617.488296590913
C		2.19915014		-0.91834232		-0.33409132		0.1622407721999628		-2.9422394410904444		2.22708155405858
C		1.13702071		1.3564352		-1.48320637		-2.0043529583829		-0.359067972178142		0.7832401320659079
C		2.81963033		-0.36816021		-1.41586433		3.5567535532849934		-0.22994331672491544		-0.40485139978749607
C		2.29442563		0.76905162		-1.92696971		-1.208803464431052		1.959099640815288		-2.3829056756184483
C		-3.1605501		1.80891787		0.28349949		1.2790991207209639		-0.048880681274520776		0.4173139994195215
C		0.94649453		-0.49900622		0.13266009		-2.4538706928952023		0.3680817969261291		0.5892542067260461
C		0.3694152		0.63834186		-0.51379814		0.32605768203591695		2.2751312548039953		0.3698963786656763
O		0.23685741		-2.53194413		1.43260878		1.0505818920538261		1.581834789133667		-1.4222600966052723
O		-2.35615388		-0.33764053		-0.20399145		1.248393875949883		-1.9456404816130854		-0.41791414631031315
O		-0.58915507		-0.63325493		2.10119714		-0.20769993228354072		1.5302748641395922		0.9394648314922202
C		0.17287334		-1.30174812		1.2255338		0.37230200559096244		-2.81511289271763		0.8717485058545325
C		-2.00559207		0.78873546		-0.03878252		-2.5551789950454893		3.0340725083264277		-0.06909777934526361
O		-0.7915349		1.41730211		-0.12588671		0.8085945512851848		-2.1602440314680713		-0.16360319974443413
H		-0.80342761		-1.24350438		2.88457189		0.2979046170680896		0.4833894984666627		-1.598238838430013
H		2.64305909		-1.80332967		0.24226924		-0.40979959059035836		0.89435143335652		-0.7769203605914592
H		0.76652688		2.2974005		-1.98118315		0.002813403880472282		-0.7961470697395179		0.5869453047002184
H		3.90548634		-0.54783037		-1.77538268		-1.5945537277469788		-0.6799595881326186		0.6103599808799576
H		2.52343833		1.20919023		-2.89712755		1.4075039701440901		0.11760184543443968		-0.2437485464073711
H		-2.90478011		2.88123608		0.32093049		0.4783860289466723		0.05483242504805315		0.27462939752170035
H		-3.99663311		1.7744658		-0.43393204		-0.06462776230107413		-0.6909606184837795		-0.048158818361922616
H		-3.44817429		1.44198978		1.29320983		-0.491744298062359		0.3695260883940123		-0.14223558444855441
21
Lattice="50.0 0.0 0.0 0.0 50.0 0.0 0.0 0.0 50.0" Properties=species:S:1:pos:R:3:forces:R:3 Energy=-17617.523299117165
C		2.1363036		-1.14970732		-0.18098668		2.7579973280970336		0.6452686193014522		-2.0046216900812364
C		0.69528852		0.73042597		-1.80616112		-0.7796789999754278		-0.484187363187554		1.1468048093386483
C		2.65531386		-0.71199799		-1.49325214		-2.0313038269528336		-0.886987228371758		3.0059092617902365
C		1.87229643		0.16723697		-2.20402627		1.511425130131315		-1.2878446251471145		-0.5813709474429674
C		-3.07012563		1.75643238		0.93089656		1.9715328784496577		-0.4400558693342348		-2.4498876427823637
C		0.96537195		-0.53969977		0.26699185		-1.39336609113968		-1.2645528991186805		-0.058183395169321916
C		0.1353615		0.33259002		-0.60806919		1.0213803826548147		0.1972281892211227		3.553993165550902
O		1.26934222		-1.93329734		2.23360478		0.7260636323013151		0.19951220296872718		0.13488768025758707
O		-2.39214089		1.42297626		-1.44333392		0.4417817994381274		0.5050265139476899		1.8757045226499738
O		-0.81687605		-1.20765723		1.90740767		0.9463703002579137		1.5579863678572072		-1.9932090775422677
C		0.54373504		-1.22972939		1.56113466		-2.0412123441652956		-0.24378305061127148		0.4054979808006752
C		-2.10006482		1.44801074		-0.24626361		0.01415546534976622		-1.8687037173805081		-1.7782381170511146
O		-0.83889594		0.95099016		0.20308525		-1.0176664756168115		0.5038917318736612		-0.7519336605407243
H		-0.87668478		-1.68676848		2.73028121		0.13783138764429412		-0.8118203086844007		1.0602819956471996
H		2.79278266		-1.87159708		0.45615697		-1.4395557530423466		1.1321137832085209		-0.7999998163461216
H		0.41670381		1.46328932		-2.49143742		-1.769859354774319		1.6569133657177442		-1.0019031966405882
H		3.54310587		-1.11401872		-1.91486601		1.2042072576456233		-0.5739733695396784		-0.4223448768987949
H		2.16115289		0.34672143		-3.21360719		0.6224413887630809		0.6501691418524284		-1.2253187910705283
H		-4.03330296		1.86758205		0.43684639		-0.5651593709263513		0.27646855900709605		0.289320115119453
H		-2.96545855		0.96802573		1.65199864		-0.178677063129462		-0.8978939506603952		0.7224925243307206
H		-2.6102803		2.63112187		1.33926205		-0.13870761958835115		1.4352239585020083		0.8721191560806335
21
Lattice="50.0 0.0 0.0 0.0 50.0 0.0 0.0 0.0 50.0" Properties=species:S:1:pos:R:3:forces:R:3 Energy=-17617.862236452966
C		2.17565205		0.30727381		0.84768526		-0.16117792959129415		-0.015369591666147112		-1.3448753947867393
C		0.97066605		1.41619269		-1.46212115		2.0038018167176186		1.4056141065051235		-1.4923963959236681
C		2.96041677		1.12184031		-0.01707203		-0.7081092592443246		-0.46703769398576006		-0.8763858502899168
C		2.35249568		1.61874392		-1.21825242		-0.08190855776210196		0.08460595346969908		0.9949372555294596
C		-3.35251252		-0.00832002		-1.4339636		-1.619158721828187		-0.16607737227895897		1.9464533615762107
C		0.83481828		-0.08520788		0.47552125		1.0650291261859033		-1.351110062747842		1.309070572660959
C		0.24867677		0.54960917		-0.67055696		-0.5793582364968208		-1.4201758575702652		1.1740428701273353
O		0.75979619		-1.73096905		2.39629209		-0.35236778028572757		0.21498021646239338		-1.8733999400773913
O		-2.38553076		0.75310931		0.61232622		0.08567121291530268		0.9236008166956677		3.282200774636335
O		-0.54376049		-2.16440111		0.55958415		0.45660225489942796		-0.07377970670878753		0.31457323287571376
C		0.3634274		-1.4352118		1.2647782		0.14031275926756123		2.1828263387230185		0.3829521832100634
C		-2.25961073		0.33091755		-0.46383492		2.0465430122686215		-0.32857941997820317		-4.359591147569186
O		-0.9569948		0.17538972		-1.16591979		-2.326987885098376		-0.14762893604600025		0.3312278104602905
H		-0.68394985		-2.981529		1.10124314		-0.04023442142888817		0.29634267192133307		-0.11186622858936221
H		2.73571743		-0.1832459		1.66028616		-0.522234598612421		-0.1121086836137888		0.1984102281705381
H		0.63452667		1.90924197		-2.433839		-0.40214006870097635		-0.8193990465136821		1.1888682621066307
H		4.0641447		1.1307523		0.1345059		-0.46120524939709934		0.43758411363664484		0.045478391934932236
H		2.88191333		2.20191865		-1.99833296		0.25395078644051666		-0.1426688153246507		0.42388249941001516
H		-3.40102881		-1.08479047		-1.51349379		0.41784472652601296		-1.0450609623194551		-0.7696585369330242
H		-4.26566075		0.12591014		-0.78506754		0.21808960573429714		0.4187229125084429		-0.5943328038792681
H		-3.50294055		0.51110273		-2.38866349		0.5670373560688928		0.12471891598709296		-0.16959114464992753
21
Lattice="50.0 0.0 0.0 0.0 50.0 0.0 0.0 0.0 50.0" Properties=species:S:1:pos:R:3:forces:R:3 Energy=-17617.327822844407
C		2.25031898		-0.40893533		-0.12351534		2.820972231044949		-0.8870673439450467		-1.3536446562057394
C		0.64645552		1.77735442		0.40111469		0.25655305133259115		1.7521445571062584		-1.214953388833246
C		2.81460232		0.83339465		-0.07139713		1.4851995183301012		3.48676560661675		1.0486067706353268
C		2.0139468		2.03936813		0.26177118		0.3163078533081595		-4.152233480533278		-0.6897943146854721
C		-3.49869878		0.64074165		-0.30541914		0.16229563954059129		1.8408786223269524		1.871010871056212
C		0.87705206		-0.53537413		-0.18243715		2.8420141904193663		-5.061848833217621		-0.04038153994954234
C		0.13384927		0.54310208		0.00646549		-1.0421802983813053		1.8936000688675276		0.8107804003155824
O		-0.64653916		-2.13248332		-1.09568041		2.0607420835273405		-0.7840154225013861		1.045455420960468
O		-2.01065526		1.59214196		1.4564897		-0.27105921514823		-2.1339321334460752		-2.062360644364849
O		1.24914065		-2.92385037		0.09404321		0.43589423039852593		4.7988124368299445		0.05404679877802362
C		0.41303119		-1.94008649		-0.47559722		-2.212154552083894		-0.23432869305432097		-0.3396371688642405
C		-2.15941467		0.8791986		0.44257153		-0.44288793942337445		2.4461294613485958		0.009864242816696836
O		-1.13765967		0.37359361		-0.33111152		-2.8646474055161337		0.262273910045747		0.5080829384952757
H		0.97720296		-3.78278565		-0.07741953		-1.5481208394889487		-3.1539221149544487		-1.0166235333463087
H		2.98129044		-1.24230379		-0.44210951		-1.3135903148395327		0.7363625458118565		0.7515485092930136
H		-0.07881582		2.60235546		0.3763535		0.08394908804403098		0.12387168608625473		0.5517488569952209
H		3.94371179		0.94990154		-0.23501313		-1.2946949180398049		-0.07697224545566429		0.23696906169466697
H		2.44804151		3.01166977		0.24884655		0.44363427923769627		1.161093766362521		0.26714584193000396
H		-3.71764837		-0.41665238		-0.15705356		-0.6712767157785255		-0.4705706467860205		-0.05086505866426023
H		-4.16738321		1.38573292		0.24944779		0.06676671441052225		-1.2808215027025478		-0.42897127813160124
H		-3.57528225		0.93138088		-1.37395965		0.6862833191058756		-0.26622019338393765		0.041971921496830815
21
Lattice="50.0 0.0 0.0 0.0 50.0 0.0 0.0 0.0 50.0" Properties=species:S:1:pos:R:3:forces:R:3 Energy=-17617.104834268146
C		2.37662985		-0.54072496		0.1358283		-0.10817900960176781		2.7717815261559493		0.09487293387946251
C		0.72095797		1.86687004		-0.13729761		3.4527142253982706		0.29237057470779526		0.5943029276609877
C		3.061956		0.72300042		-0.00664725		-6.007837376083946		-0.368313299051255		0.7011015119964286
C		2.16671382		1.87046339		-0.05824228		2.4982862936435284		1.513543102039286		-1.8042646226265433
C		-3.51752589		0.34953068		0.02584473		-1.790637467546333		0.5973239224075492		-4.355502785072462
C		0.98095311		-0.51151315		0.34034579		-0.8917351816634607		-1.234183388993301		1.0154304386534678
C		0.18872711		0.70186948		0.29230172		-2.613218048485529		-3.543165993192866		-0.7522143735796097
O		-0.93275456		-2.13299399		0.39309789		0.7557532399170512		-0.3828659998334062		0.4943179722877142
O		-2.0221637		1.82770258		-1.27699968		-0.3429683414914681		-2.261785738359795		1.5593713182650293
O		1.22177151		-2.80641666		0.14884572		0.18951745095754577		-1.704643375500941		-0.3770958273623659
C		0.26698047		-1.90803688		0.42859952		-0.3432075055038982		2.1356313240774965		-1.5971775384832179
C		-2.2052548		0.91966195		-0.43471323		0.5483681134997967		2.595602752508299		-0.7350550884521385
O		-1.24014793		0.39389235		0.37482766		1.9655193767791292		0.8004590153637525		0.08840069598986526
H		0.80666767		-3.55220254		-0.35486551		-0.008784122395046735		0.17815353511171286		0.7004630042470534
H		2.95833914		-1.44302971		0.01112636		-0.015525914735978879		-0.6239514490488307		0.1815480597198723
H		0.23165813		2.6947462		-0.6068572		-0.7922642926484463		0.8096863445150098		0.13918440495133805
H		4.06663311		0.59423519		-0.19928462		2.8948846580969065		0.8279361373207448		-0.3518380816204852
H		2.69435959		2.8926733		-0.34373178		-1.0018991342976549		-1.712418237076386		0.562506352458644
H		-3.47800616		-0.1061561		0.94330841		0.40134266677864705		-1.5482005951078006		2.8259676787231975
H		-4.32178887		1.13777591		0.04946716		0.5630426845699419		-0.23748055694980405		-0.15747358705690567
H		-3.90146331		-0.43435485		-0.76432815		0.6468276848127118		1.0945203474847283		1.1731545539986037
21
Lattice="50.0 0.0 0.0 0.0 50.0 0.0 0.0 0.0 50.0" Properties=species:S:1:pos:R:3:forces:R:3 Energy=-17617.482740978623
C		2.1687608		-0.35941866		0.22522993		-1.9804499782981868		-0.9546097087454841		-2.4070172235884373
C		0.65514083		1.90010801		-0.1092885		1.0175952560603256		-1.0357288350049358		-0.36893344912433756
C		2.78299319		0.8298407		0.29983107		2.137469611387831		0.8465544720480207		2.4777117608167325
C		2.0426946		1.97135306		0.2074925		-2.3981275831212545		1.5402446764504878		-0.5930039035195107
C		-3.53427745		1.05416321		-0.22192779		-2.1555976881717593		-0.061577765511293965		-0.46953022419657775
C		0.84943088		-0.60098076		-0.33204125		3.2597243968300242		2.5436904835423535		2.059801008362541
C		0.13537384		0.58465953		-0.4170129		-2.7347224685050815		1.513362816288355		0.6958386695934674
O		-0.72935688		-2.35753696		-0.28805594		-2.858203501182944		-0.40807047231859417		0.5526924518410805
O		-1.83718994		1.12218464		1.46872345		-0.11110646761674237		0.5437451158198344		-0.5592264476276737
O		1.43877438		-2.81997772		-0.39255226		0.9781973687432871		-0.6076732295392865		0.6911239863761662
C		0.38446186		-1.94261292		-0.26346834		0.9649828242921333		-2.368597229632909		-1.5032447541714309
C		-2.14707338		0.96107665		0.29911923		0.6225468039910924		-0.8937171936383277		1.2024533539397606
O		-1.27264248		0.43930992		-0.60998149		1.2081150258590427		0.7078931323158697		-1.1916553378911312
H		1.21060909		-3.76046799		-0.14407203		-0.43053430314166913		1.0917411392757816		-0.36548755387579596
H		2.75861662		-1.13328671		0.55910689		1.197543781105794		-2.719783588033971		0.6704978257986761
H		0.04907045		2.83223809		-0.0572738		-0.027099221220086452		-0.6668267533386895		-0.20717126205954717
H		3.71741289		0.86000474		0.94688748		-0.40937489577662795		0.09230517319128836		-1.1471766936942482
H		2.47047005		2.91497032		0.52641783		0.1701978221426496		0.6624226593785539		-0.035991587056579205
H		-3.87217032		0.18831387		-0.91792422		0.711158021904606		1.0890918231965703		0.8787549675508672
H		-4.17140382		1.06035615		0.70548591		0.14983987904287088		-0.21474470341639684		-0.5317711800472205
H		-3.82710645		2.03206532		-0.7277459		0.6878453156746946		-0.6997221151713505		0.15133554115113626
21
Lattice="50.0 0.0 0.0 0.0 50.0 0.0 0.0 0.0 50.0" Properties=species:S:1:pos:R:3:forces:R:3 Energy=-17617.91367813586
C		1.88049172		-1.1171729		-0.44780472		3.262200009182298		-3.6998611530684844		-0.6041304551250991
C		1.08829999		1.24494956		-1.57925248		-0.18256637082246388		-0.03965628318082285		0.36667797462138985
C		2.64677458		-0.61176863		-1.45826511		2.3765739742255123		2.217802442890441		-1.4752875044173928
C		2.30045717		0.69797441		-1.96163282		1.2551392164131239		-1.3715340317758002		-1.4077504360893875
C		-3.03618459		1.70591878		0.62355677		0.981554355245862		1.175766126283981		2.016467019275676
C		0.79184229		-0.53228199		0.01991665		-4.552562207084639		2.2923439674543467		3.676381016603253
C		0.31680206		0.68461651		-0.55772229		0.19630814567986282		-0.584818693885757		-0.5110342563472245
O		0.51956826		-2.27256986		1.60971817		0.16228952031516036		-2.9363255953769336		1.480766576592934