21
Lattice="50.0 0.0 0.0 0.0 50.0 0.0 0.0 0.0 50.0" Properties=species:S:1:pos:R:3:forces:R:3 Energy=-17617.69533153726
C	2.01027426	-1.18453722	-0.02036833	-1.0619674565879482	-0.7286803467929365	0.8924223346839087
C	1.2136484	1.2942652	-0.6641745	2.6683745867931705	-0.1267440196502886	-2.4759646962451756
C	2.94557393	-0.43489822	-0.73742429	-1.1160761675291553	-1.7068026907471168	0.46360018053339697
C	2.45401497	0.73079857	-1.20488069	-0.8014013760801132	4.566347844961304	0.44480505675543636
C	-2.79762803	2.46456104	0.39834972	-0.001409221621295929	-2.898742495487692	0.6975598174455526
C	0.64294004	-0.82327361	0.28778019	2.1702744703905896	0.901821053569294	-0.40210062797908125
C	0.33980296	0.52487124	0.00695205	-2.3121845017618066	-0.6588039860001982	2.056865579927887
O	-1.38165053	-1.61878234	1.39406405	0.9119226606262353	0.03416445833379552	-0.09705343501536588
O	-1.67663124	1.39267312	-1.46346293	0.13975909792121957	-0.2653130567803514	-2.3828159441194825
O	0.21389603	-3.04989846	0.52461353	0.7118591103039765	1.6806597656223137	-0.3695536506194826
C	-0.29373411	-1.78542127	0.8618124	-0.672344186372814	-1.6681948519974783	-0.30000207157314485
C	-1.71559253	1.65633549	-0.30908013	-0.9994544780269733	0.6648674184933605	1.4320208782323307
O	-0.8227323	1.12130202	0.59960669	1.028758111642	-0.2625261352620381	-0.6152562353997507
H	-0.17805377	-3.73259075	1.04503223	-1.2453779719875036	-1.1159929152100574	1.0078978264141993
H	2.36724216	-2.09260339	0.43638118	0.01147077089159293	-0.9826436802166896	0.05600325398785563
H	0.92702049	2.29867516	-0.92455831	-0.014066453759674516	0.818490984312972	-0.16413850341448302
H	3.91471788	-0.8669561	-0.96616177	0.5070902355797814	0.05575781648380726	-0.053554123997741315
H	3.13064453	1.48769529	-1.68450791	-0.45009751826636574	-0.5698665465225357	-0.2012224493435742
H	-2.61561127	3.47421207	0.5497128	1.4398723586808184	2.7032392079292134	0.5020602836976321
H	-3.75521981	2.57036915	-0.16302439	0.11181537216960445	-1.0620300886600058	0.20115724616839434
H	-2.76727165	1.96117279	1.41993539	-1.0268174430053385	0.6209923664654526	-0.6927306172951873
21
Lattice="50.0 0.0 0.0 0.0 50.0 0.0 0.0 0.0 50.0" Properties=species:S:1:pos:R:3:forces:R:3 Energy=-17617.68169534118
C	2.33286136	-0.48551169	0.33693312	-1.6172545628558614	-1.3112214546888945	-0.5252274654908251
C	0.62216538	1.64439136	0.03417381	-1.0675276213559646	0.47191476807626154	-0.5267598943737385
C	2.81290957	0.75862118	0.33075183	0.36930492210343774	1.9609488296028608	-0.16689395463058018
C	1.98036546	1.84314348	0.09229932	0.03708343170846669	-1.0487159910959591	0.3972756444378364
C	-3.55268821	1.26710686	0.56765164	3.8091209515787137	-0.383554284139228	1.4038665791350045
C	0.98157851	-0.73136355	0.08598819	-2.602954924730449	-0.4909657166148843	-0.6765267540879378
C	0.02886899	0.37039044	-0.01066787	2.7416879982397098	0.42973047346153415	0.8648480250288961
O	-0.64943934	-2.48795753	0.01663292	-3.6105423161536696	-1.1809258160296783	-0.24010405915366823
O	-2.10035117	2.06069111	-1.10811139	0.4255822556841234	-0.007714697762385126	-0.9820289294601638
O	1.5493806	-3.01134174	-0.13249176	0.3262177074942448	0.7192099969745657	-0.2668067648502439
C	0.4679594	-2.14121672	-0.07064714	4.009591301836973	0.6894163625265038	1.0984016333359887
C	-2.29460137	1.21733071	-0.27707216	1.0559748322747724	-0.0077308442899927474	0.9718857733767671
O	-1.29583464	0.31644948	0.19631309	-2.1930893596339742	-1.0241972318134707	-0.2112755653956302
H	1.30455273	-3.94876553	-0.09060151	-0.6764538376033913	-0.19437477897606847	-0.03227366909770534
H	2.98719376	-1.29715383	0.4869419	0.8789864696759931	-1.4881650286712846	0.1897060156605304
H	-0.09746056	2.46251562	0.02208107	0.12769712757770038	0.5523883931858451	-0.15271205834071738
H	3.84061495	0.92072714	0.51882148	1.6402086002002212	0.3200329703557756	0.1890958928896245
H	2.47048079	2.77154211	0.05692324	0.3351335732132747	2.0323968543121578	-0.044741410935975355
H	-3.21028022	2.02638048	1.31748068	-0.616819414676006	0.09938660825466747	-0.19567082063792368
H	-4.208855	1.64434089	-0.13256137	-2.6663688178254548	0.9123104343991305	-1.2484959487438358
H	-3.7290591	0.3839364	1.15163827	-0.7055783167528608	-1.0501698984895194	0.15443767991223534
21
Lattice="50.0 0.0 0.0 0.0 50.0 0.0 0.0 0.0 50.0" Properties=species:S:1:pos:R:3:forces:R:3 Energy=-17618.36112303955
C	2.15443235	-0.96447515	-0.09848933	-0.4534744051071067	0.6128534881099617	-0.4644265330768826
C	0.88109074	0.99329355	-1.7004251	0.520593154957125	-0.1953830113544209	0.7928145087166043
C	2.74488504	-0.52424054	-1.28486638	1.9853762118803853	-0.8268324141724326	-0.23865544823253967
C	2.13247884	0.42547453	-2.095142	-1.130923722417364	0.2595403646282513	0.6700384725148579
C	-3.16028991	1.4927246	0.61694581	-0.005764824576546033	0.22884571280203414	-1.7291789497978485
C	0.92391939	-0.44690762	0.3535379	0.08007566976832446	1.7891471533325625	-1.8738544596873399
C	0.3659945	0.66974412	-0.39237468	0.07244427574709968	-1.361693597374015	-1.1501928033448772
O	-1.04280533	-0.95642915	1.64493143	-0.4909160429025628	-0.2907589044266547	0.055697241294247454
O	-2.2794485	0.20576973	-1.3035975	0.5133530828311041	0.5743250964468	0.5889650090468573
O	1.01172516	-1.76625028	2.21670171	0.49254262558181233	0.19473838437961466	-0.6090960780071303
C	0.14375133	-1.05866416	1.42634128	0.8999826119927724	-0.14661494439665398	1.153291805360167
C	-2.06946589	0.89444694	-0.33266463	-0.5409354657499205	0.23184691005455435	0.7491420081926662
O	-0.74904967	1.25246097	0.15238586	-1.4191970900336939	0.18103599882204835	-0.8119374995647121
H	0.53759284	-2.36905236	2.78857768	-0.8502758867071407	-0.4590988474531787	0.7505959670082889
H	2.66199362	-1.71693497	0.45691908	0.37973537324971274	-1.011884681759659	0.781246447282866
H	0.36599222	1.66358634	-2.42265633	0.03483011693214165	0.01736965278493219	0.6440242568123538
H	3.77579542	-0.98111863	-1.59127681	-1.633744229886178	0.7566681926741292	0.44265983115437
H	2.64387208	0.72796759	-3.00328569	-0.0630515732430204	0.19962312035742033	-0.6093914463338124
H	-3.57933138	2.47674348	0.30275696	0.5693095941641975	0.07753372295549756	-0.5780427572953616
H	-4.10152078	0.91601019	0.64498313	0.3577637029862957	-0.6831257987835236	-0.0030682516219480197
H	-2.79185514	1.70639183	1.59167782	0.6822767691105	-0.14813559762726747	1.4393685767350481
21
Lattice="50.0 0.0 0.0 0.0 50.0 0.0 0.0 0.0 50.0" Properties=species:S:1:pos:R:3:forces:R:3 Energy=-17618.160097692256
C	2.20755084	-0.97716584	-0.18550736	-2.3305049999034027	-1.2323866507094223	2.275807557769267
C	0.89974393	1.01397757	-1.67112916	-1.2462993525023873	-0.9055986211206036	2.791186104218004
C	2.72386676	-0.57681648	-1.35176895	0.8175390590929963	0.8945101732632869	-2.594141388915684
C	2.07399026	0.43035697	-2.09824157	-0.29785679455001607	0.5010427439259773	-1.8342407025521585
C	-3.11172385	1.46352295	0.81442423	2.0706355854975684	-0.42799909261902247	-1.054790016533985
C	0.91492987	-0.45330493	0.28700709	1.2968155638950227	-1.1711338212107159	0.4303116456112839
C	0.28910459	0.54715916	-0.4397855	1.0979459824406665	1.526754561166693	-0.9399259331261614
O	0.92738259	-2.16763966	1.90439409	0.045981094017391234	-0.8426319971247418	1.0294132801396072
O	-2.41254273	0.38791347	-1.30696266	1.6133204151244078	1.7440899595111143	2.691392850293524
O	-0.8605382	-0.69500599	1.95028821	1.0904201064915784	-1.0230958740800309	0.307158788535943
C	0.3740958	-1.19206355	1.4737156	-1.4723691995295336	1.285506258279506	-0.39870749176660797
C	-2.06538703	1.01814189	-0.28001701	-1.9286855477617693	-1.433898297732185	-1.082452360759903
O	-0.74540582	1.3333009	0.08855832	-0.9963071392729854	-1.0666062922631436	-0.4482678698625222
H	-1.13752787	-1.28250696	2.71677639	0.4712613993508396	0.4317483266139252	-0.8357414407571574
H	2.62390149	-1.8770829	0.32955399	-0.2381410733419057	0.6564588314203469	0.061708634660215624
H	0.27965389	1.82729448	-2.00827717	0.17345947214145202	0.6914817810866563	-1.3499767719136246
H	3.57299074	-1.07308248	-1.84771003	0.18935475155197087	0.015567772294808832	0.3682426451374559
H	2.37347821	0.68335425	-3.14975834	0.36782067569303506	-0.06662329827836408	0.717345741522697
H	-2.95639406	2.51384504	1.05919182	-0.15111370637375	0.681715445876854	0.0061962556804567364
H	-4.09646941	1.23098189	0.42946169	-0.6650191135775722	0.03919780407206625	-0.1913438597714553
H	-2.90327936	0.92173184	1.75003651	0.09174292436051845	-0.2980998152171295	0.050824383812866504
21
Lattice="50.0 0.0 0.0 0.0 50.0 0.0 0.0 0.0 50.0" Properties=species:S:1:pos:R:3:forces:R:3 Energy=-17617.788516451164
C	2.32741633	-0.61543397	0.09281143	1.5386015872891934	0.59649371320938	-0.4403459411884851
C	0.5966089	0.60815925	-1.76714578	0.5372642904458088	0.1863006924192576	-2.32889600356951
C	2.86722196	-0.07231915	-1.11826349	-0.03567842669629122	-0.37831458166436677	1.7623063793983227
C	2.00100885	0.51512575	-2.00733308	-1.1303020811044706	0.6496569781104795	-2.4716082705369264
C	-3.14268064	1.05861547	0.5358702	-0.8924407952043262	-0.4080531945056128	1.7182690907634017
C	0.99375141	-0.55701532	0.37013319	-0.8690764612237204	-0.70097259688588	-1.1840669841361726
C	0.17437297	0.03237365	-0.62213679	-0.7279638317748325	-0.23733040452746562	1.6829605943843378
O	-0.10188125	-2.51021433	1.31310049	0.13882414198185075	-0.32188514162296983	0.3535393805564668
O	-1.61221289	2.23085147	-0.82503519	0.06272380901699812	-2.580915583032855	0.4776094015375706
O	-0.12762169	-0.43464415	2.41345103	-0.7164855018400602	-3.0729876453212364	0.45492296460617265
C	0.25023478	-1.36526028	1.39039091	-0.45752358399224896	2.6264874088552492	1.3191113474180287
C	-1.91421395	1.14158422	-0.30083974	0.973684722809331	2.4846483399302053	-0.033032813005575874
O	-1.14166466	-0.01639773	-0.2902275	-2.187429281798628	0.6834555684699813	0.11370749837931818
H	-0.6720245	-1.02211884	3.07445612	0.9902018492209932	1.2476178141834684	-1.222883750725524
H	2.98353587	-0.98346422	0.87281168	0.5713101180815446	-0.509800383958865	0.1914691753376329
H	-0.19694122	0.91718817	-2.55036688	1.4771706317661788	-0.12565865417826913	1.1196648618451057
H	3.95693188	-0.11126689	-1.21868163	0.09770541534510174	0.017984969184145	-0.42983902543535496
H	2.27147926	0.81639625	-3.05876419	0.42612882078584774	0.0173637906698135	0.8854811790068786
H	-3.76653918	0.19890421	0.23670893	-0.13583204643438324	-0.22813068902374117	-0.09998660087927179
H	-3.00851314	0.8966939	1.72053271	0.1967057924887474	0.4911761871164704	-2.334864768045711
H	-3.70489843	1.99926116	0.30384612	0.14241093368149074	-0.43713674169337624	0.46648228428929533
21
Lattice="50.0 0.0 0.0 0.0 50.0 0.0 0.0 0.0 50.0" Properties=species:S:1:pos:R:3:forces:R:3 Energy=-17617.725873859392
C	2.01172717	-1.09924714	-0.48384036	0.446080683858501	0.9380991643578147	-2.369799014654303
C	1.0466961	1.26727505	-1.45836518	-0.15083129640680393	-0.10597511142745208	-2.6897340774031844
C	2.74573455	-0.52360896	-1.57624092	-0.8993826193681682	0.34676066717469933	0.3262714949715618
C	2.19459246	0.68755674	-2.07897068	-0.6087846659969653	0.45985865984786095	-0.87261717875541
C	-3.12054779	2.01172205	0.15581019	-2.2284240812648854	-1.050277833398591	-2.1140379145054222
C	0.7897643	-0.61060436	0.0146873	-0.0845031607668722	0.9054921774513431	0.6008012879583069
C	0.28132309	0.56921484	-0.54560122	-0.8746696389558263	1.1265417913661424	0.9163371418429845
O	0.84896333	-2.3188995	1.61048345	-0.4704904797906694	0.12384350679603505	0.24784277101921495
O	-2.59115241	-0.30399468	0.1504497	1.5354775941515553	1.6921988764348954	-0.028876830496735936
O	-0.36221237	-0.50047427	2.20493754	0.6083937040561986	0.19305138077699266	-1.939078152270085
C	0.38697719	-1.22792284	1.29150924	-0.0988299130066416	-0.8870037348538026	1.1430941933126415
C	-2.19278283	0.86242311	0.07266268	-0.04632649601083203	-2.6031155672535258	-0.6685688813922521
O	-0.89120438	1.30014272	-0.25340487	-0.3732286825782776	-0.7503057923099137	0.6305354785021827
H	-0.34983455	-1.09904325	2.96099893	-0.1712183958159888	-0.4654366166494832	0.7936150473847429
H	2.21812793	-2.08346954	-0.17224998	0.9006385518213167	-1.528102282001305	0.9801775295239061
H	0.44894144	2.05596982	-2.00642476	0.9239137199456435	-0.19882314733196874	0.5430933926004108
H	3.64426838	-1.00711592	-2.07104728	-0.9101498850234558	0.2930728458146019	0.6226705768953966
H	2.41049686	1.1311544	-3.12091137	0.504272512246064	-0.4771884091123361	1.5102320868605366
H	-2.81241818	2.84866034	-0.43401859	0.675006409389699	1.0479688799507005	-0.6605487365789457
H	-4.15667027	1.6701626	-0.32696535	1.7835238936939262	0.5163793226280348	1.3115935961548064
H	-3.22384632	2.35021521	1.15463382	-0.4604677027554556	0.4229610674730692	1.7169961376075842
21
Lattice="50.0 0.0 0.0 0.0 50.0 0.0 0.0 0.0 50.0" Properties=species:S:1:pos:R:3:forces:R:3 Energy=-17617.766610302817
C	2.00184703	-1.07703786	-0.13528367	0.28849617941290223	1.9416098146704228	-0.9451604419727159
C	1.35846494	1.36686706	-1.25192452	1.9777845671134302	4.910511543716361	-2.9232168775302907
C	2.97665852	-0.31659681	-0.88203613	1.3229344234946017	-2.629690437702864	1.244510687482312
C	2.67956288	0.90220255	-1.4105773	-1.0452302437490228	-0.016669027184123688	-0.9201900941378381
C	-2.88284096	1.63289783	0.70217009	-1.1950137642114547	-1.1992785558044272	0.16360170850462322
C	0.72086266	-0.52217943	0.06913304	-0.23792844311369704	-0.5548063099840557	0.38138190768919084
C	0.43191551	0.77134253	-0.55369505	-2.950270795913363	-4.010251355430512	3.9211667974321958
O	-0.74352721	-0.79845291	2.08275159	-0.16013915250784955	1.5561088455132275	-0.7284510558164957
O	-2.27413133	-0.0211648	-1.00367438	0.11337618603098724	0.42591999579026	0.8959633093259104
O	-0.15610896	-2.63650661	1.07156136	-1.1213684233518346	1.044737260436366	0.7538723751390128
C	-0.15884224	-1.24853694	1.09955541	0.3725479573156352	-1.0860781818049385	0.5002544437087005
C	-1.99377984	0.88330688	-0.23410676	0.22851352627864166	-0.8640772083128506	-1.4645878073521579
O	-0.7182382	1.44103415	-0.21600931	-0.09353030382903241	0.46264907806642047	0.29946440248822354
H	-0.81293996	-2.69773348	1.89212501	1.5446579749598006	-0.47009350146859646	-1.6644509144750073
H	2.31366764	-2.00655825	0.30697755	-0.03361696763494721	-0.7858734558836992	0.38223448548452327
H	0.98163975	2.41527772	-1.59209857	1.0029350831676649	-1.4337414090196665	0.03306346055479288
H	4.04252174	-0.74905897	-0.97719323	-1.4331148311887782	0.4844621626892583	-0.0008011557328878151
H	3.3584588	1.31584737	-2.14625609	0.4413791646891857	0.8081895511213706	-0.027774341477922414
H	-2.54227292	2.69789026	0.65450821	-0.5657701621840691	-0.33280898745840126	0.5275746255311117
H	-3.97610951	1.40174483	0.37598538	1.4613013719192567	0.7664034689582147	0.42022603081576265
H	-2.75828354	1.10738993	1.72000732	0.08205660187988013	0.982776709092234	-0.8486815456610441
21
Lattice="50.0 0.0 0.0 0.0 50.0 0.0 0.0 0.0 50.0" Properties=species:S:1:pos:R:3:forces:R:3 Energy=-17617.359204454267
C	2.31961358	-0.29292457	-0.10554973	-1.0307939625162463	-1.4646747106376894	0.25780641268261734
C	0.79811245	1.92572215	-0.17970354	1.0184482452321575	3.4276917355920746	-0.9760275633963723
C	2.82305424	0.87055314	-0.60457455	2.470151586351994	-0.017881816526881013	0.5137127287358421
C	2.149777	2.05423976	-0.56592476	-2.037360625999941	-1.4303250814570303	0.1629924599087789
C	-3.49147405	0.46210521	0.11122982	-1.2270669355053971	0.8273419553891967	-0.6243978953949753
C	0.97685421	-0.37443081	0.33823758	1.6103678117208975	1.423636408106604	-0.9552763443630168
C	0.2230905	0.79150604	0.24119182	-2.175315426594102	-1.6359168120244647	0.551336246366165
O	-0.77061132	-1.97714755	0.06089805	-0.512623609453264	1.2704164540551204	-0.5291778111719488
O	-1.81410691	0.25887473	-1.54605787	0.6831644167524196	-0.4836947912513967	-2.8192503632839894
O	0.8784896	-2.49473826	1.41966349	-0.235271413725119	-0.42978806617147225	0.14519183881849798
C	0.26411807	-1.55916126	0.5612739	-1.163918945895293	-6.3331948953176145	1.630731051293108
C	-2.14579212	0.41835041	-0.43192058	1.955845189905228	0.4302139436926389	0.5684763510643442
O	-1.13884121	0.76175304	0.56567129	-0.36699977388816857	0.13778479925571926	0.22085631838206968
H	0.28823254	-3.35650801	1.46663266	1.0871864300947456	2.344110660561511	-0.508463564601491
H	2.9687291	-1.14465975	-0.27760558	-0.0537074645879513	-0.8576218368597351	0.5256277348248943
H	0.13096499	2.76552498	-0.27222622	-0.45757644587244206	0.8730544719744395	-0.00930271389480114
H	3.89107357	0.83094749	-0.85606065	0.0957629469362547	0.1857412718019221	-0.48243438507881553
H	2.62858311	2.84648046	-1.06010559	0.3342773958735711	2.1132295596837922	-0.443746533600013
H	-4.12946801	1.19331589	-0.46969278	0.5546173853266338	-0.5033767913403403	0.02307323368510663
H	-4.03929155	-0.49986865	0.08880359	0.30957218019265825	-0.012264316159238934	0.5020352411532215
H	-3.25468246	0.96179903	1.01618646	-0.8587590357706988	0.13551796047697126	2.2462376092928396
21
Lattice="50.0 0.0 0.0 0.0 50.0 0.0 0.0 0.0 50.0" Properties=species:S:1:pos:R:3:forces:R:3 Energy=-17618.00557648845
C	1.97532446	-1.20504981	-0.15440952	1.1076467030987893	1.7071157996853423	-0.7472592407983173
C	1.49470598	1.43934205	-0.70891974	-1.4206845760340303	-0.4402364636175405	-0.4787808475421224
C	2.9611089	-0.42860154	-0.86567448	-1.0872277220108888	-2.4227505235022555	1.0235080733325872
C	2.63404864	0.82886219	-1.27903132	-0.8669748415316073	1.5671399063488562	0.7409746420145806
C	-2.91678099	1.6847003	0.73940829	2.6205063030840603	-0.5700809765229298	-0.3545074523040499
C	0.68231243	-0.72349304	0.16120321	2.5755802869439086	0.6655278320413371	-1.8571483057741311
C	0.47181774	0.65713381	-0.10886318	1.3970391176380395	0.5764364863307777	0.5140095368802725
O	-1.47606433	-1.1121751	0.90421552	0.8002669539605216	-1.051194791616104	-0.41476485351795234
O	-1.91757453	0.87657654	-1.4217207	0.26287842781184645	0.383453908273336	2.488112644277102
O	0.06343762	-2.72579342	1.28583881	1.711512643134673	0.711740736716229	-1.4628134376654423
C	-0.3199676	-1.54663584	0.71353194	-3.1152523640416265	-0.09413286755675894	2.7700582185772418
C	-1.83010266	1.17597986	-0.23139708	-0.3584091527141011	0.6595956286515339	-0.774278346445115
O	-0.57229841	1.32973391	0.45884733	-1.3201072385013943	-0.28490018316408466	-1.1026275498497533
H	-0.67036899	-3.01651349	1.8104015	-1.456518708735404	-0.5022051396475388	0.7303423592732103
H	2.33884268	-2.13100633	0.21503342	-0.05289396756007676	-1.5774750724134212	0.37298566191116417
H	1.19401962	2.50079015	-0.78295556	0.4693298324192309	-0.07004096281462358	-0.35511253571283635
H	3.94265764	-0.88514659	-1.06238547	-0.06847053302756363	-0.014355188640301286	-0.1950884657807379
H	3.27678451	1.37424746	-1.94474756	0.6821811240743529	0.6938547550022899	-0.384045313413512
H	-3.79847863	1.94827254	0.28474957	-2.927888520481326	-0.11451024819614178	-1.9232730157350315
H	-3.0759125	1.01583308	1.57198856	0.018602085355543373	-0.5784255945502621	0.6201009650129745
H	-2.6561464	2.66950024	1.09258571	1.0288841471170518	0.7554430106143226	0.7896072632598684
21
Lattice="50.0 0.0 0.0 0.0 50.0 0.0 0.0 0.0 50.0" Properties=species:S:1:pos:R:3:forces:R:3 Energy=-17617.594309703654
C	2.19564283	-0.35941356	0.34589433	2.0993865347854395	0.758950509493673	0.9986686974907564
C	0.78338134	1.65224754	-0.87013631	0.91688962048189	0.21914360374822536	0.28700493960200707
C	2.95418859	0.79207432	0.03526881	-4.022070767905481	0.22736342043000432	-1.1730497044132793
C	2.14334892	1.73596836	-0.62370402	2.035248001986464	2.042071863939058	-0.9304084806985913
C	-3.53242466	0.45879198	-0.3630645	1.0086650950079359	1.481819751853863	-2.257939368088934
C	0.80064456	-0.47702567	0.30000761	1.707666787084437	-0.2733637977208124	-0.48078440536115374
C	0.14376608	0.5892902	-0.35115799	-1.8058950105384135	-2.588669875783322	1.2806079982992775
O	-0.42815255	-2.40519223	-0.47916437	-0.1494205835456971	1.176466700462727	0.8099228345801927
O	-1.95934595	1.93338485	0.80499019	-0.30246266868318433	0.47153825573504166	0.22335949295981328
O	0.93388699	-2.66990115	1.20373339	2.212942543768796	1.4223620665551	2.6928134876126832
C	0.31110351	-1.87938945	0.37062831	-1.7843402703572977	-1.097439166593212	-3.114486946642138
C	-2.17448332	1.03599103	0.02664088	-0.551593562366638	0.026106364038404942	-0.04824813848438899
O	-1.18189323	0.33427234	-0.55004984	-0.3952316174556611	-0.526671242738084	-1.2636239081385554
H	0.55584059	-3.53499697	1.21632747	-0.8496377389122026	-1.549163936025639	-0.5242102856736073
H	2.92295056	-1.10540149	0.609759	-0.3206857220164481	-1.6030589882973882	0.7050789056823983
H	0.24702174	2.31462984	-1.50849695	-0.4685261570052832	1.0662673694495708	-0.5335322828418252
H	4.01157434	0.87649666	0.09975519	1.235089908532138	-0.002906889189996675	0.17686479538272482
H	2.60677669	2.61645434	-1.12006451	0.21953214885205724	-0.10327720149923053	0.3296482275461154
H	-3.50616414	-0.54357908	-0.76890026	0.21912920557074084	-0.7818522506005267	-0.03065536537050942
H	-4.09098603	0.56991678	0.49811555	-1.803199723135377	-0.17081025890636553	2.4840710758572015
H	-4.10766202	1.09027686	-1.11406357	0.7985140272738456	-0.19487629835109124	0.3688983278556878
21
Lattice="50.0 0.0 0.0 0.0 50.0 0.0 0.0 0.0 50.0" Properties=species:S:1:pos:R:3:forces:R:3 Energy=-17617.633744984672
C	2.14899903	0.3479541	0.97406979	-0.77650831560509	0.30874803879785767	-1.498500246157912
C	0.84292957	1.31556412	-1.25342623	2.6390795406625727	-0.45164640220926133	0.40336555929315754
C	2.85708878	1.26017227	0.16305897	-2.6034248709591306	0.5273446660678591	-2.3172086429509
C	2.22291922	1.72483201	-1.06629005	-1.852822373348911	-1.0678649500856017	1.2812666634971313
C	-3.46583943	-0.21471829	-0.94210146	-0.0044251770057377295	2.073677920400044	-3.6588460933096236
C	0.84513362	-0.21064168	0.66800122	1.4522381305692607	-0.4449897133816751	-0.7509371009705467
C	0.24718147	0.28801114	-0.52183859	-1.0592093828466664	0.44032254415007277	1.156405154130879
O	1.10048417	-2.1670767	2.07866867	0.5074317809185389	0.3530289651646411	-0.04040807373376379
O	-2.181927	1.75678266	-0.6476738	0.7403088805721096	-1.3075648318284547	-0.6080870228757785
O	-0.70472647	-2.09001635	0.81673288	-0.9431653173719253	-2.4070767703367486	-0.11817869813094391
C	0.42862688	-1.55606459	1.2562004	1.0888907629324116	0.43863852302707274	1.189395646779063
C	-2.16242562	0.54151267	-0.85467023	-0.32170948385765885	1.9175744227749143	2.021752693074363
O	-1.0214333	-0.23170373	-0.83087589	0.012664379805058395	0.23605518880090048	-0.7312900678840653
H	-0.67225846	-3.08364125	1.15954383	-0.038569220780742715	2.4549130695230184	-0.5260298039311492
H	2.76330751	0.05449996	1.77903332	0.31148605793478606	-1.0753404838355565	1.7623982706239114
H	0.38055697	1.69703762	-2.11639575	-1.1398487926855716	0.5697983094456716	-1.4764609044603179
H	3.79164963	1.68337217	0.46244528	1.1511499221931596	0.08026289749768548	0.36257202577930864
H	2.58939523	2.35434594	-1.91660371	0.4231309145453241	-0.10549364665678271	0.976089167027181
H	-3.38525797	-0.93246882	-1.79459093	-0.38299969719576227	0.06568628545649748	0.23496843493319503
H	-3.89495177	-0.68599079	-0.1232367	-0.19195115432892673	-1.474789636008804	2.5542148827967144
H	-4.2461808	0.61803965	-1.14892157	0.9882532615867152	-1.131284499607476	-0.21648194637402723
21
Lattice="50.0 0.0 0.0 0.0 50.0 0.0 0.0 0.0 50.0" Properties=species:S:1:pos:R:3:forces:R:3 Energy=-17617.86976211936
C	2.34250184	-0.43411802	0.16860298	-0.4079999726709826	-3.44221887960919	0.37335759768882637
C	0.62662457	1.74565891	-0.03261113	-0.5683737126277046	-0.777914760435014	0.6411585566943754
C	2.85736164	0.8176362	0.29633305	-0.051654901543410216	1.6013563523877832	-0.5609402935468918
C	1.98444653	1.93840957	0.19396426	1.0779341098211404	-0.16462732154008194	0.4870836080106247
C	-3.48483687	1.13507077	0.56173863	1.3936129170394143	-4.238066775789406	-1.7112822208728586
C	0.94321804	-0.6793112	0.08765746	-0.9528783279029724	-0.1561261747546682	0.41527151509921967
C	0.03145411	0.4493465	0.03383738	1.4470952044159204	-1.0891932789257734	-0.2948878389306487
O	-0.71388554	-2.52544281	0.01919701	-0.32042038417423363	0.8952345044348823	0.4822815072871675
O	-2.00274962	2.07729501	-1.11035596	-0.20010916169164725	-1.1020748141005356	1.725223564754605
O	1.46187398	-3.11986737	-0.08281409	-0.06799858133844654	2.596448594013451	0.6256965081599527
C	0.42417123	-2.10745778	0.09615663	1.1394407071980108	-1.9228209643840806	-1.633255154650267
C	-2.22100794	1.28145477	-0.19588449	1.0746011374217275	0.07513339250264323	-2.2187906720865027
O	-1.32220913	0.19043231	0.10098996	0.15050574332946678	1.760570370570191	0.013504359195091927
H	0.99949808	-3.92385705	-0.35913811	-0.5636858203049372	-0.2602503490444247	0.09321410956706018
H	2.94507355	-1.42219361	0.24527265	-0.49096067725276477	1.661573901503291	-0.2457321524661739
H	-0.04744668	2.570439	-0.14949805	-0.3686900170807245	0.9017266940847082	-0.030550412941059868
H	3.93223847	0.96805086	0.32681491	0.49391574891527207	0.11053321446460926	0.33393420502881543
H	2.43583872	2.94444221	0.41748234	-0.5637884587415767	-0.4637524926823581	-0.5963048913960832
H	-3.38356984	1.55036274	1.49843146	-0.03795431575802946	1.5242528264066977	2.79364515866617
H	-4.19864845	1.55710629	-0.1019908	-1.6084779995039942	0.4936003259842366	-0.3474571275884498
H	-3.52812708	-0.03807343	0.73831789	-0.5741132375495279	1.9966157377571645	-0.3451699770950362
21
Lattice="50.0 0.0 0.0 0.0 50.0 0.0 0.0 0.0 50.0" Properties=species:S:1:pos:R:3:forces:R:3 Energy=-17617.694287175105
C	1.78769373	-1.33936663	-0.43850651	0.19982238084939336	0.9580858915888057	0.20370294679177972
C	1.45516261	1.48636393	-0.53828213	2.210519227654029	0.09423499177277404	-1.7146492346776099
C	2.78046798	-0.50560417	-0.97195793	-0.3626800635325048	-1.7551745507137475	-0.7288336359610839
C	2.61948475	0.8325902	-1.11641833	-1.5125840805746928	2.1144915599403094	1.394687946676882
C	-2.98769754	1.84217183	0.42444993	-1.7972937449974198	-3.727441170572429	-4.6232280508020915
C	0.62446494	-0.71451948	0.10295054	2.055354594045014	-1.2498181642354753	-0.36684473636989784
C	0.50156076	0.6636266	0.04464004	-1.0997967653121747	1.183885464255743	0.5066256886676564
O	-1.10373238	-1.06240902	1.72945452	0.3972542014377969	-0.8546750441492814	0.1440157134062637
O	-1.66692172	0.97097666	-1.47270448	0.13240116642807548	-0.03008622598337192	-1.1980462260779412
O	-0.11200035	-2.79420703	0.61431811	-0.18937696588294697	-1.827092933028226	1.189837619405775
C	-0.28252488	-1.49352502	0.93276676	-1.4039663379361471	-0.16087330529337196	0.16628033515942803
C	-1.74799781	1.30809809	-0.33635437	-0.5025653511949635	-0.07502124098445141	3.1835687851480436
O	-0.67596002	1.13941374	0.6257914	-0.48146806168135553	1.470224385304967	-1.7636637161586117
H	-0.45518732	-3.39789893	1.34316728	-0.024352048956042902	0.966579582175165	-0.8259795792667877
H	2.02871434	-2.40920344	-0.42877457	-0.569811422071595	-0.10731918129563064	0.2683998717668419
H	1.46904164	2.58905104	-0.7263681	-0.7941720511651433	-0.5541544324984446	0.6045716564208743
H	3.62660999	-0.94266699	-1.478495	0.7912639278456481	-0.5593462610331699	-0.05857507701896288
H	3.44068816	1.38865226	-1.57150555	-0.026228337170523686	0.5114248583335541	-0.20230128421366309
H	-3.46276046	2.61117649	-0.14718338	-0.2281476583043479	1.3379631897308657	-0.5513112552438169
H	-3.90703804	1.06472907	0.46098169	2.046976757365342	0.8332582693617047	-0.39485808759406305
H	-2.85877811	2.03612338	1.38922122	1.1588506331545598	1.430854317323711	4.766600371363047
21
Lattice="50.0 0.0 0.0 0.0 50.0 0.0 0.0 0.0 50.0" Properties=species:S:1:pos:R:3:forces:R:3 Energy=-17617.98927672628
C	1.70623139	-1.45869331	-0.6247032	-0.8402173199164654	1.490473005099988	-0.09428003749947556
C	1.31632929	1.35824564	-0.73578264	2.8953310015989255	0.7171957947886083	-0.8475396673423979
C	2.59730536	-0.64006766	-1.29901284	0.3690135132755639	-0.5137188479612729	-0.014332357244575857
C	2.47296777	0.73315305	-1.30563469	0.005707951775482238	1.06789647180988	-0.48472369529885184
C	-2.70767413	2.03359154	0.78673498	-1.8154401280355787	3.0175635066006326	2.7225824908928336
C	0.68042607	-0.82434117	0.07206044	-1.3085140316791206	0.09135263090656347	0.46193096896438085
C	0.45768293	0.60540323	0.00136994	0.19653373426780757	-2.4952380966259335	0.7807360833131027
O	-0.68540881	-2.77031888	0.29239894	-1.1110383994935142	-1.9809007440975763	-1.0295786020703668
O	-1.60948183	1.51212471	-1.26293173	-0.7378136249919824	0.007210504440115225	-1.8586396484291512
O	-0.49873493	-1.38437023	2.02063684	-1.5385887831956446	1.147524769634936	2.8794814878239827
C	-0.28744281	-1.76195766	0.78579924	1.4130562159144902	1.241549188061999	-0.7917647273117965
C	-1.70444383	1.5384268	-0.08048744	3.084268308847971	-0.7890393580022295	0.2701118150697495
O	-0.57267453	1.13392918	0.71025907	-1.262770867544661	0.37016932697313254	0.13224705450692884
H	-1.32789482	-1.74237003	2.48024027	1.2726034857929542	-0.12803985562389403	-1.05177210711117
H	1.68990949	-2.52201054	-0.74249367	0.2086370993715947	-1.1027862383344575	0.21694572195521566
H	1.32622499	2.45071631	-0.75531503	-0.5567560289037073	0.2601065729578295	-0.002452780956547875
H	3.39810689	-1.13446077	-1.81237868	0.9741259241051063	-0.22510948858892998	-0.5856508571222989
H	3.3089457	1.30330914	-1.81400831	-0.9986347589295429	-0.10697825302162252	0.4129694007856346
H	-2.83968	1.47243033	1.71339592	0.30593854299413115	-0.5257587582400033	0.39948864431720477
H	-2.39714765	3.10116314	1.19249796	-0.34641217985751194	-1.5883504786660296	-0.7803603423028198
H	-3.71745728	2.15109697	0.38954307	-0.20902960397423478	0.04487829646620304	-0.7353988449395812
21
Lattice="50.0 0.0 0.0 0.0 50.0 0.0 0.0 0.0 50.0" Properties=species:S:1:pos:R:3:forces:R:3 Energy=-17617.672236661198
C	2.11697239	-0.27959792	0.50352963	1.71519045188484	3.056200244549364	-0.9919169292697099
C	0.93413439	1.79642807	-0.8449765	-0.24430153926690096	1.1494674437320327	0.26025765097729187
C	2.8112688	1.02850413	0.32007222	-0.5376035732138188	-3.030759899063743	2.128123188739951