21
Lattice="50.0 0.0 0.0 0.0 50.0 0.0 0.0 0.0 50.0" Properties=species:S:1:pos:R:3:forces:R:3 Energy=-17617.70400995204
C		2.20204001		-0.83926384		-0.05632183		-1.7676254775375984		2.6256908296859187		-1.9754312364256499
C		0.84568157		0.88770938		-1.84125823		1.5895629080543499		-0.7594271920125351		0.5269484076546607
C		2.86952205		-0.27782953		-1.19156207		-0.8458909731762971		-0.30003621582260814		-1.1413689316955606
C		2.15993161		0.51841081		-2.15333216		-1.0239014006882265		-1.3051033091212914		2.819324462475972
C		-3.23289473		1.31141557		0.40089882		1.7690071369334237		-0.2091001550439089		-0.4028389973737242
C		0.84452069		-0.40009276		0.24843781		3.233384628050183		-0.18949158566013616		-3.090680074392133
C		0.26020362		0.504748		-0.68004273		-0.8077134856672578		-0.7661959809362504		3.096060879006342
O		-0.15988404		0.14060091		2.28054858		0.6156312050790972		-1.059461093842333		-0.3554491959556615
O		-2.15596317		-0.56008543		-0.70764996		-0.7153408467300422		-0.594747831345259		0.19276388002586456
O		0.11672728		-2.05894354		1.72040766		0.9234368831605941		0.11490907771246256		-1.6344530315949155
C		0.26083965		-0.72289599		1.49969423		-2.206992445501262		0.5046155488246322		2.6392625517828128
C		-2.09103394		0.51796218		-0.16684143		1.3075075476508913		-0.6081867302548588		-0.7835260901551626
O		-0.85182439		1.17254508		-0.20054803		-1.1704417316722733		1.006619473941825		-0.08291766431551596
H		0.14862732		-2.22999359		2.65226769		-0.44781149905832585		-0.08206236115087392		1.695085145377852
H		2.75176883		-1.42507043		0.61699857		0.8716350173627171		-1.2892884023943731		1.3050892194761814
H		0.33560156		1.65074636		-2.31391026		-1.3013310894644756		1.7904659235460179		-1.934074271373595
H		3.89707013		-0.55789245		-1.47824408		0.03858752703497302		-0.1176969762499623		0.41807951966313517
H		2.45134385		0.85336845		-3.10132385		1.5387076710040166		0.5253855883328424		-1.6520689960589574
H		-3.30684623		2.08458082		-0.37020135		-1.109284752897964		0.26626127961183094		-0.4309430056939793
H		-4.0347602		0.59618612		0.60172846		-0.5864691878240432		0.317934435987409		-0.17075194628755327
H		-2.89131785		1.88573322		1.2533448		0.0953424687316447		0.12891572761351394		0.9618893758595873
21
Lattice="50.0 0.0 0.0 0.0 50.0 0.0 0.0 0.0 50.0" Properties=species:S:1:pos:R:3:forces:R:3 Energy=-17617.606744291865
C		1.61039772		-1.46437216		-0.62097769		-0.8963791081228379		1.2155413486952382		-1.4731995115718277
C		0.71942491		0.98297614		-1.97555572		1.7373715642085943		-0.5955521752460183		-0.2479534827196583
C		2.35675022		-0.91413236		-1.66494597		0.5684573249012398		1.112791069069878		-0.5944695865653709
C		1.84878142		0.25284236		-2.34873025		0.5542658126856997		-1.0315415878821292		0.7623720306846157
C		-2.30946259		2.3903864		1.16154629		0.3938152481676853		1.1161416278146474		-2.6469422311206734
C		0.34228843		-0.76963156		-0.36934263		3.2813351870592045		-1.8461641418594519		2.2160176345250493
C		0.12416845		0.51522277		-0.84397421		-2.161985388190698		-1.7140551555901866		0.6384939168405556
O		-1.55532358		-1.80975942		0.69526072		-0.8830061837193547		0.7506304197901269		-0.0647532321334391
O		-0.2671598		1.44468013		1.78241838		0.850857367389265		-0.18736929429892013		-0.5700467294293416
O		0.40704784		-1.90405724		1.76203016		-0.5968870405650193		1.0567908489837066		-0.9314993997533549
C		-0.41283065		-1.40166768		0.74488206		0.7547089606729251		-1.7376056888589049		0.30037169335799707
C		-1.06421628		1.63124001		0.88549828		-0.13918759311920958		-0.498339228992949		1.7680567543753216
O		-1.00824446		1.08532903		-0.35161497		-1.0591009851390332		1.6492550265357981		-0.6222033560360245
H		-0.29460266		-2.40603801		2.21744598		0.054121772145067935		-0.4255566989190884		0.627460901966554
H		2.01480813		-2.39553938		-0.18414181		-0.7172980732708107		0.24385879530925242		0.4335357575045016
H		0.43142785		1.88257992		-2.48667291		-0.29851581970230684		0.7420021576663498		-0.3106265381610236
H		3.41110647		-1.29261744		-1.88645518		-1.257966041451894		0.2814911575343158		-0.0672306956799604
H		2.38757486		0.65808778		-3.163204		1.0701795085382981		0.38335296676475716		-1.3467043747037712
H		-2.11367187		3.47234473		0.90766506		-0.4548425405005093		-0.542900302755931		-0.09194768701317307
H		-3.17690592		1.96815123		0.66095415		-0.4732778641075446		0.08476690452515087		-0.7334124620894064
H		-2.49875512		2.33727079		2.17410327		-0.3266662107228871		-0.05753804828564141		2.9546805463003674
21
Lattice="50.0 0.0 0.0 0.0 50.0 0.0 0.0 0.0 50.0" Properties=species:S:1:pos:R:3:forces:R:3 Energy=-17617.648210628922
C		2.00674003		-1.10649256		-0.30127432		2.4355524573243534		-1.084638158368238		-0.38463975245537235
C		0.61293795		0.99293707		-1.4662966		3.6123863627349984		-2.905112043518587		-1.685760474262387
C		2.45426019		-0.6026382		-1.57050439		0.005738187948199697		-2.221069235095488		2.8758111866949325
C		1.72455923		0.38168566		-2.12877677		-1.4901506916125848		1.4240958128124843		-0.5317496856251186
C		-2.94768126		1.8123353		0.56242646		-1.200026026904123		1.654089214626221		0.009541055154232142
C		0.92676119		-0.51585013		0.34584867		0.7768751091765079		-1.4903703666633485		0.44254243458580883
C		0.19302353		0.46274564		-0.30489053		-0.28782131626537855		1.5288837945063392		1.0408801429544545
O		1.34599671		-1.76934724		2.31774557		0.1886751575747023		-0.7551573610574426		1.224690567733642
O		-2.19070128		0.61066428		-1.40703299		-0.9705334245565349		-1.1227348103951142		-2.1947573370734914
O		-0.77418043		-1.19180359		1.6486249		-0.6212117329838417		0.6692886874223525		-0.5066647694351143
C		0.56335338		-1.21067532		1.60139763		-0.40020726763986886		0.8082192216514011		-1.3186259745706135
C		-2.03983482		1.0810371		-0.33198779		0.1717787420304483		0.5615696995912145		1.5306507594160625
O		-0.8440181		1.15196521		0.28143774		1.291810551713159		-0.852280010168859		1.4056883599632939
H		-1.12850641		-1.76437789		2.30946768		-0.45158716399332505		-1.1523300585262648		1.633275517786995
H		2.58583555		-2.03482778		0.18434748		-1.2759190261131987		2.0672459459853414		-0.7626001389536204
H		0.14765445		1.72011499		-1.99965052		-1.9561448262630927		2.6565773372271164		-1.4452578941247725
H		3.32837316		-1.09228633		-1.97565455		0.40786031034938297		-0.1168257322459624		-0.7557137991951561
H		1.9032712		0.60359547		-3.16410662		0.3587602625564732		0.8042627567448465		-0.8845844296599061
H		-3.62367759		1.22843773		1.21988276		-0.26900418384469155		-0.16420046699972884		-0.6084656435215587
H		-2.31005538		2.35869913		1.2688182		0.04891513405635869		0.2809760113127453		0.1629945682133391
H		-3.44172766		2.57785477		-0.10880828		-0.375746512443818		-0.590490187418966		0.7527452035302258
21
Lattice="50.0 0.0 0.0 0.0 50.0 0.0 0.0 0.0 50.0" Properties=species:S:1:pos:R:3:forces:R:3 Energy=-17617.75747440212
C		2.22790754		-0.26036478		-0.41046485		-0.40830120311278345		1.5259737685705332		-0.19506769126751025
C		0.9292016		1.75618564		1.07638883		-1.548423921124998		0.9767903582706763		1.6898012199292887
C		2.9164422		0.77316132		0.12917725		0.0013856188946338298		0.8414694985590556		1.7023490259187848
C		2.27615792		1.69640486		0.99588996		3.3108869321255265		0.39260549272661227		-1.2543907168721793
C		-3.44203421		0.11839036		0.49247151		-0.18346142324137565		-1.0203081298087184		-3.6322843354862093
C		0.86298745		-0.23012455		-0.19737131		-2.131793849823439		-2.9033602995393477		-0.009585946614746332
C		0.16313126		0.71967689		0.57555086		0.22307826570030348		0.26097581150139404		-1.0611478917567052
O		-0.97321566		-1.80530063		-0.26731406		-0.6442762249183326		0.10691181571694403		-0.08474792978410879
O		-1.84104988		0.7395634		-1.3950683		-0.7488050394174662		0.11563952810948899		1.5185324819141666
O		1.01739179		-2.47540044		-0.83208034		3.8006572400547602		-1.1403186360701285		-1.1073520032589188
C		0.20894662		-1.55148701		-0.47018705		-2.899277027826804		2.0828427717454314		1.1005673763399704
C		-2.13325074		0.60280627		-0.22393056		0.33877014146936113		-0.6150768238238814		1.003330107451365
O		-1.17395437		0.73509376		0.8475357		-0.2973521898512466		-0.12096356276675939		-0.8745084822121246
H		0.56255574		-3.24072335		-1.15764102		-1.0945727979884217		-1.2189465176703236		-0.19352276682342287
H		2.70329189		-0.95465805		-1.05963153		0.3627521058419898		-1.1082638192701877		-0.5676182711083302
H		0.41165783		2.52744994		1.66988013		0.05466298935229797		0.035784561833177006		-0.00885688461340593
H		3.97073775		0.78123659		0.0601917		1.7216500399470762		0.2685596401148575		-0.20916330133659095
H		3.01165941		2.4068712		1.42588498		-0.7405926789347417		0.23255319208223177		0.2620042527502872
H		-3.22318983		-0.51479162		1.36111823		0.33944927264806773		-0.25864762620214954		-0.03850098370387865
H		-4.16684624		0.88195208		0.83877364		0.14780608505112208		0.267313529275636		-0.43509019503014124
H		-3.88741544		-0.53262417		-0.44163686		0.3957576137324076		1.2784654980675205		2.3952529355644105
21
Lattice="50.0 0.0 0.0 0.0 50.0 0.0 0.0 0.0 50.0" Properties=species:S:1:pos:R:3:forces:R:3 Energy=-17617.89331008523
C		2.22809868		-0.30275094		-0.16230282		-0.10085805057152143		-2.005547904269989		0.054037028586159136
C		0.85635672		2.00330219		0.19282852		-3.911272524131031		1.311858008399897		1.230189540247349
C		2.90831637		0.87770902		-0.18855695		3.213617164493456		-0.4477237730197953		1.4539773275652639
C		2.20434234		2.00198437		0.09272272		0.8156826712166816		2.9694330732171794		-0.4034057199239268
C		-3.54179802		1.00699078		-0.0034097		-2.2462257822184775		-1.3426740162934836		0.9458243007988762
C		0.83125131		-0.37765705		0.06491941		0.3348773370761129		-1.0313881958698567		-0.11347759033812811
C		0.10517667		0.80344689		0.283235		0.6258845072202504		-0.36283962619227056		-1.6959271816503831
O		-0.71824721		-2.02594145		0.94124356		-2.523147626706023		-0.16134571978105106		0.7125904348760645
O		-1.86725985		0.05146865		-1.5484434		-0.8525286358407789		-0.9062965727741651		-1.9683639424294435
O		1.19500746		-2.72830088		0.03902715		-1.4750395986543472		-0.9671663593297211		0.2472468407375438
C		0.25700752		-1.74032988		0.32060905		3.0910549926494175		0.1176829380269149		-0.19043425490887167
C		-2.23866921		0.5006371		-0.5150252		2.1673380649367497		1.170804462900758		1.068333919295097
O		-1.23507949		0.78308796		0.43144997		-0.9453032410401245		1.2425836456921984		1.9142260751788303
H		0.69821503		-3.53929489		0.40427956		0.9137257752458574		1.001832182772352		-0.5967183247781384
H		2.8172401		-1.24181115		-0.17852222		-0.38900646257611043		0.17773274837472822		-0.18225002229430434
H		0.27079985		2.97205979		0.37852192		0.7267198806622338		-1.0384058675758048		-0.29071941228269715
H		4.04037803		0.9104431		0.04364009		-1.3184939741363177		-0.21398838772196074		-1.0869248974851522
H		2.70585556		2.98527506		0.17733246		0.08054674728238001		-0.1664443715386265		-0.004583042737442838
H		-3.9118581		1.96009976		-0.46186201		0.7048642699937543		-0.07788498706405701		0.25588759842249487
H		-4.3523665		0.27729386		-0.36831243		0.800087748072902		0.5305817877428755		0.43053841690666483
H		-3.60670568		1.02007921		1.16192486		0.28747663418081193		0.1991969857259414		-1.780047042363793
21
Lattice="50.0 0.0 0.0 0.0 50.0 0.0 0.0 0.0 50.0" Properties=species:S:1:pos:R:3:forces:R:3 Energy=-17617.44059849452
C		2.34082485		-0.42153986		0.27489478		0.45501943239531883		1.8724158246463256		0.2992110459865587
C		0.8365935		1.93206713		-0.58971728		-1.3714720167684917		-3.7726019284276395		1.6845394573896388
C		2.96053478		0.92076503		0.2860965		-2.23490320971085		-1.6380043934935309		0.155791828504653
C		2.10309117		2.01574417		-0.07350633		2.4421677513916715		0.839869758196402		-0.6582529986011036
C		-3.49937922		0.69854354		-0.80151205		0.6449369984207466		1.4013250436986773		0.41571960695136245
C		0.94959522		-0.56066563		-0.09598981		0.9078798066547737		-0.8755592920581814		1.3766973210658686
C		0.24954635		0.59152512		-0.4025706		-1.7682177568528359		2.4798340007558863		-2.7530339163636874
O		-0.58466589		-1.94755396		1.1880184		0.6326336014940497		-0.5915500475480129		-0.91560273194715
O		-2.09565863		1.16750421		1.1166302		1.1342634311069577		-0.5064105901804505		0.6286833586570508
O		0.8307961		-2.94736837		-0.39144854		-0.031074455179433406		2.454665472292347		-0.39147837253988776
C		0.25230038		-1.90037523		0.30203742		0.6015429483649462		1.0340881626805762		-0.2622255218849866
C		-2.15971356		0.70397707		0.01500603		-1.7561022047202492		1.2854984421260145		-2.1951539554411275
O		-1.10834718		0.48203787		-0.94200475		0.6199855739048487		-0.3219132694911271		2.577814267024755
H		0.81907684		-3.73239297		0.12612876		-0.5774695041432285		-1.8316080472211793		1.1628114175143598
H		2.85761743		-1.31787898		0.71035546		-0.07751181715689612		0.5750621288678193		-0.5504866510504544
H		0.21493482		2.78380686		-0.86211532		-0.1208631869008674		0.1519111597181418		-0.239006815185224
H		3.98265759		1.13241834		0.67914869		-0.4494619929966121		-0.34322591460225343		-0.28657109166116146
H		2.52710163		3.0356569		-0.15398741		0.35094997118000343		-0.1393469500907256		0.403854325996694
H		-3.2143959		0.34064098		-1.78917512		-0.35050470754129515		0.1766087135117504		-0.7880422327893652
H		-4.3077986		0.08173371		-0.42407772		-0.21563235105831657		-0.7544526216916384		0.6382357266650208
H		-3.98718326		1.76958832		-0.7704894		1.1638336881157596		-1.4966058059553884		-0.30350401686975115
21
Lattice="50.0 0.0 0.0 0.0 50.0 0.0 0.0 0.0 50.0" Properties=species:S:1:pos:R:3:forces:R:3 Energy=-17617.610458018993
C		2.01479585		-1.22754778		-0.24847728		0.4247563659391998		1.9148368150144854		0.467081042784401
C		0.82766758		1.10837483		-1.51683645		-0.07921527581950041		-0.9353145054102493		0.5845191089499543
C		2.6725307		-0.51098172		-1.28958236		-1.8892083162023787		-0.4823823459516215		-0.07318531908898969
C		1.99953479		0.55189679		-2.00823492		1.7972896826544866		-1.8101886499084177		0.8818469761656645
C		-3.17737701		1.49167421		0.33877003		-3.348723439938496		0.6828680199844887		-0.9769930640408332
C		0.90108524		-0.54440293		0.33712168		-2.5409708735037797		-0.2828553848509727		0.7506253290059448
C		0.2509155		0.54369094		-0.31133481		0.39646147892315003		1.9655543437815917		-1.4317358457401999
O		-0.83146361		-1.03484831		2.18302834		1.5195053359135569		0.36520401262347607		-1.167847231511628
O		-2.21123012		0.60919959		-1.72078948		0.07745864674432834		-0.1842159905856886		1.465860966196225
O		1.29737997		-1.93703523		2.2194836		-2.0678603882094926		1.2754134443952427		-0.43048473227347256
C		0.2707178		-1.10919957		1.63650469		1.3702434408525639		-0.9470641381464796		-0.268799421192037
C		-2.14882346		0.97466621		-0.56447827		2.0465580789329176		1.3153559427756325		-0.44170955144039264
O		-0.8963828		1.25145175		0.15652327		0.4141881550876355		-2.3259917883267605		-0.7122119684964717
H		0.71233514		-2.22888334		2.94051917		0.32085505486807836		-0.7304382099976072		0.8475264004502872
H		2.32396612		-2.13346056		0.33064812		0.3739263771215268		0.554248380606531		-0.7214243338275577
H		0.37817604		1.93969796		-2.06150325		-0.4782382419392064		0.16368696628415647		0.0995775383725245
H		3.61833226		-0.79227803		-1.72901685		0.6089162036326988		-0.7036391907780725		-0.08173068884810586
H		2.58046494		0.69286172		-2.94901702		-0.8086898877889569		1.0879096299809674		0.18058867830084224
H		-3.94933357		2.11292437		-0.24010179		0.7585060686079638		-0.6706260210003507		0.07689629506943353
H		-3.81714348		0.673138		0.70886738		0.0884778805055947		-0.3445619112066281		0.2458382361809972
H		-2.94089513		2.14918145		1.1612062		1.0157636536181092		0.0922006835604008		0.7057616878275385
21
Lattice="50.0 0.0 0.0 0.0 50.0 0.0 0.0 0.0 50.0" Properties=species:S:1:pos:R:3:forces:R:3 Energy=-17617.688738904413
C		2.05024595		-0.92126216		-0.30641663		-0.4702185599244619		-3.2596842876213175		0.3472333901947531
C		1.02447112		1.25278198		-1.58657964		0.6522015474484912		-3.897030258339858		1.3235842955197772
C		2.70863096		-0.52891473		-1.43764233		2.0079047316580154		0.30293508317086343		-0.5224211064329077
C		2.15846172		0.55875991		-2.10828765		-0.8045765855919463		2.3505839783144196		-0.4687834215836939
C		-3.03957224		1.81610597		0.40702744		-0.51038104188799		-0.2719222316222388		0.5054931177423129
C		0.76088226		-0.48524838		0.07901139		0.6713445414788899		-1.2341929020748532		2.1545482667213887
C		0.25404577		0.64264865		-0.52290946		0.8271584814703943		2.703465002205408		-2.139196621355035
O		0.66661388		-2.36512294		1.65332719		-0.3808408961702105		1.1165265219520457		-0.35060184381725307
O		-2.34628549		-0.38102127		-0.23793734		1.332587167368464		1.4737011852130375		0.11240055524022469
O		-0.50616075		-0.44267941		2.14689094		0.39610574109515784		-1.7634450695490973		0.22080597618293638
C		0.31273979		-1.23723808		1.32718476		-0.9540397466053473		0.43653284099202627		0.6499033412116519
C		-2.04274616		0.805075		-0.08442651		-2.953535582657975		-0.9877604325402456		-1.0605701648851396
O		-0.88594668		1.4295177		-0.26943642		2.020763898235614		-1.2200986289793962		0.30649359273615884
H		-0.75494541		-1.06290421		2.91729061		0.38416255571588587		0.9282888632846225		-1.1333782517240352
H		2.36347353		-1.93453441		0.1178184		-0.16387753644757638		1.308064808541604		0.17229851623763892
H		0.61788374		2.12261299		-1.99332963		-0.6733180688134536		1.8201346538044016		-1.137664897693547
H		3.75072672		-0.97149038		-1.66741137		-1.591798790751506		0.49509830208531197		-0.06600067994628413
H		2.57481988		1.02722547		-3.02329302		0.3078778232351067		-0.3424520639845237		0.20430463634444468
H		-2.69622124		1.58547743		1.45636443		-1.5280535853081698		0.3555634043563511		0.3698523613802237
H		-2.89704901		2.90860845		0.31849777		0.6142408039326561		-0.08368076772219474		-0.49236259694119355
H		-4.09093206		1.58325823		0.04665265		0.8162931539420245		-0.23062805290842855		1.0040615348675777
21
Lattice="50.0 0.0 0.0 0.0 50.0 0.0 0.0 0.0 50.0" Properties=species:S:1:pos:R:3:forces:R:3 Energy=-17618.23223357887
C		1.83526342		-1.29208653		-0.36339833		1.5060352752341155		-2.043235082413619		-0.3478364681431041
C		1.29229888		1.34552836		-1.0754379		0.00729020863690445		0.269881392807935		-0.13484541132225755
C		2.76584187		-0.61402612		-1.17176805		-1.146833811381867		-0.8854848813953745		0.7467576185791696
C		2.42820735		0.67387284		-1.49209002		2.8118673378243724		1.8939149775779385		-2.5975554539075723
C		-2.8966449		1.50865454		0.68629578		-1.3856876459313183		1.592945708432272		0.4479466362384304
C		0.68798602		-0.71129342		0.13992369		-0.6760778394827959		0.4134709715827199		-0.1549436730066908
C		0.44331189		0.66757384		-0.23980707		-0.45831208989777533		-1.436090163143889		1.2989653146375844
O		-1.3574407		-1.22187845		1.30796386		-2.0175982018053333		0.15654295057078219		-0.0027639358564005177
O		-1.97145458		1.08772606		-1.46592893		0.25019610170699486		-0.07101525663176256		-0.8963207440819634
O		0.49738666		-2.3796164		1.85665619		0.7815912322115576		0.4975405415190587		-1.526138319170356
C		-0.21700293		-1.49199936		1.07044345		2.265849932487171		0.6226689828114608		0.9194242139397873
C		-1.84264643		1.32681116		-0.30248253		1.1480840874081466		0.011506252114679743		0.3017492389888271
O		-0.56908765		1.34735474		0.36254948		-1.337638973627152		0.055485896617599895		-0.30597268724359444
H		-0.05217073		-2.67106979		2.58732748		-0.901868464710868		-0.2664040786792397		0.490085525172019
H		2.06639306		-2.37933008		-0.18898841		-0.3938251212036747		0.6891497391327284		0.28007756503771214
H		1.00893189		2.37479066		-1.3376727		0.33042902014227515		0.0007102929485480994		-0.09877921085307115
H		3.64944107		-1.1248882		-1.56891745		0.114433372212787		0.06558488114935661		0.008893651388053864
H		3.20756373		1.16862539		-2.1868733		-1.2205648213975198		-0.12269880026395444		0.818405983643751
H		-2.42375928		1.73599281		1.6921425		-0.9085699421548435		0.5610425720290942		-0.7678119706706363
H		-3.834384		2.08427429		0.22742797		1.885421904056329		-0.6766570575941727		1.258773316410213
H		-3.2223277		0.49365342		0.80581694		-0.6542214574833799		-1.3288598391721624		0.2618888102200989
21
Lattice="50.0 0.0 0.0 0.0 50.0 0.0 0.0 0.0 50.0" Properties=species:S:1:pos:R:3:forces:R:3 Energy=-17617.51943449701
C		2.27511814		-0.39251545		-0.2032467		0.8822287849793162		-2.4349672742537334		0.1129457833683254
C		0.78144528		1.76658327		0.44550433		-1.4529607648127956		-0.3741392644600477		-1.1013922376436451
C		2.91975391		0.82457289		-0.32259955		-0.30865671321495597		1.9887953676564554		-0.5307038637191192
C		2.0527912		1.95118327		-0.10475684		0.4553282218802991		-1.8332610094184631		0.7883962736892965
C		-3.57201205		0.44955959		-0.24626905		2.8385476749237846		-3.1319095127293255		1.5688979238197138
C		0.8897056		-0.64968269		-0.01532026		0.912765313963516		0.5590725413947769		0.991564688141964
C		0.1286347		0.51362566		0.26067342		-1.496009052920718		0.4997471136406215		0.40298791566656395
O		-0.8691709		-2.11894622		0.53875303		2.638924605988427		-1.2174781606772163		0.01497287045438655
O		-1.81357583		1.96414808		-1.1920483		-1.266980380420506		-2.200215840424055		0.7239899862111715
O		1.3149969		-2.9910372		0.47143824		0.18937100092370338		1.2946705954042688		-0.26563110223657155
C		0.36703844		-2.01046855		0.36744946		-2.7162414821065948		0.6338873742205754		-0.5922953074990233
C		-2.18415315		1.01216997		-0.48558893		1.5315750709885054		2.593769710248334		0.6505387636372806
O		-1.29530855		0.41903797		0.4192591		1.242198494444488		-0.19291675781751252		-0.09088684986493971
H		0.96818712		-3.83065686		0.79705922		-0.7630058590263087		-0.3675911790283446		0.16987180626675047
H		2.85107784		-1.33812377		-0.1928412		0.23697487238772325		0.22663883214809666		-0.2567991573234513
H		0.15670545		2.59255966		0.84071144		0.21642862169527216		-0.009067098004679704		-0.4844978496005949
H		4.02741498		1.03834286		-0.5878281		-1.6290992749855517		-0.7606398270891049		0.309229503568527
H		2.35142055		2.93591987		-0.34339997		0.8184636791978138		1.6594700706624927		0.0966979028756235
H		-4.02753736		0.51457079		0.76478257		0.4534362499367727		0.38698948359878105		-0.07369259773500628
H		-4.1817521		0.76630725		-0.98369021		-2.7203056762339717		1.709007565940619		-2.81463142794696
H		-3.46386396		-0.6800585		-0.43897793		-0.06298333616615633		0.9701373204095236		0.38043702729177015
21
Lattice="50.0 0.0 0.0 0.0 50.0 0.0 0.0 0.0 50.0" Properties=species:S:1:pos:R:3:forces:R:3 Energy=-17617.893705832328
C		2.29841457		-0.47266595		0.22458814		-1.5217395216826526		2.758402276838785		-0.3124746985073471
C		0.64530164		1.84522545		-0.122358		0.3984755782649825		1.4061555808226662		0.014449650969012127
C		2.82907853		0.88935648		0.40551615		-0.1251031930597419		-2.758721299314192		0.07111018175903541
C		2.00626631		1.99022561		0.13114926		0.8553919191218224		1.9107692784530501		-0.02265470951886954
C		-3.5908558		0.60508592		-0.13795118		2.787956438742042		-0.10552285438825129		-0.5163729977143541
C		0.91637696		-0.60965117		-0.17360991		-0.2132155141234175		0.755234545573172		1.2126094683828934
C		0.10085117		0.5943942		-0.10083515		-0.04915815472347215		-1.5453763411721526		-1.5227919770347071
O		-0.74741078		-2.42646667		-0.78029796		2.945283935719543		1.8011592956975726		0.7278186672925513
O		-1.96135409		1.60740225		1.51351815		-0.3910032841049615		-1.0301709842297295		-1.0380481242873771
O		1.46414814		-2.8684695		-0.42017062		-0.17883636867891553		0.8236885206966285		-0.07643822733717649
C		0.40792884		-1.9867023		-0.4927904		-2.155173250468341		-1.418824537191282		-0.263567843403042
C		-2.21006721		0.98637441		0.48802681		-0.6954307383720938		1.3011942553563107		1.0076589709341437
O		-1.22331967		0.6194603		-0.42110706		-1.4590105190373477		-1.6474969576428775		-0.16100211755979585
H		1.10176258		-3.70217881		-0.73796008		-0.3690484288559639		-0.8182960946963067		-0.15397431570754647
H		2.78103105		-1.43101859		0.39135551		0.8857230169665559		0.05878996981791912		0.015975754938244772
H		-0.05677311		2.68062328		-0.43185183		0.9172148136047901		-0.5574282181039839		0.6072522371140521
H		3.8788851		0.93237825		0.77688854		-0.395943967286707		0.4334718398808829		-0.34511336140428467
H		2.37283718		3.07535314		0.07974637		0.08089070945807234		-1.3618106854102017		0.2884330845422826
H		-3.53868584		-0.4886172		-0.17029291		-0.18977692668464152		-0.5238197351093401		-0.2268727511101574
H		-4.50577923		0.9080801		0.35394267		-0.29677934807561307		0.6667936889525374		0.39828619080899885
H		-3.40994338		0.95367061		-1.18895575		-0.8307172481460017		-0.14819144198708237		0.2957169682655064
21
Lattice="50.0 0.0 0.0 0.0 50.0 0.0 0.0 0.0 50.0" Properties=species:S:1:pos:R:3:forces:R:3 Energy=-17617.972789076553
C		1.95756248		-1.12505029		-0.39233992		0.22879778743983575		2.1895831463061852		-1.270880023948059
C		0.94752362		1.23360633		-1.48300733		-1.703751099873401		-1.4857450035685138		1.7954844597303046
C		2.53624559		-0.51562957		-1.50507303		0.7325490342388981		-2.194273249777637		-1.901038424466335
C		1.97990311		0.58803384		-2.15447093		0.07313214867642191		0.2940950135718769		1.5215413924760532
C		-3.11516749		1.43573759		0.67755836		2.3453489038251787		-0.12935770024022583		0.8951972234396101
C		0.85295321		-0.6009238		0.24865297		0.29547235351445716		1.7753787418468168		-1.5998051030300149
C		0.34143844		0.60604457		-0.31849672		-0.7118095394357798		0.8276110470419695		0.7112495531757576
O		0.90998128		-2.15949213		2.11613366		0.8824276855168524		0.4055080595249143		-1.3406769890763826
O		-2.04623376		0.63572153		-1.44454477		-0.41330559822989776		0.1578800784605307		0.5735595247811238
O		-0.84669039		-0.87388933		1.85590878		0.07185019665967653		0.2282729738705255		-0.5936243107029056
C		0.39300309		-1.27740918		1.42106101		-1.889523790555477		-1.03830101799048		3.032123457893588
C		-2.01626773		1.0132974		-0.2940837		0.5314136424470427		-0.006101227709059003		0.5470746429410638
O		-0.79259419		1.17055337		0.42251546		1.0743320457689545		-0.38810950754088824		-2.644480811257635
H		-0.93519069		-1.47609521		2.61354918		-0.35250985944426216		-0.24211913551468714		0.5530627935348069
H		2.45289722		-1.89806248		0.06348227		1.2951156019326648		-2.7125641361549904		1.185192715927211
H		0.44177627		2.07061387		-1.91627119		-0.40932470784368197		1.041635018831142		-0.2553941008892134
H		3.26755321		-1.17366287		-2.0844769		-0.199791116235427		0.9965634782542718		0.772169579086322
H		2.40815519		1.04898833		-3.03403465		0.24329006729861447		0.01761200496523388		-0.6673928074020802
H		-2.80477999		0.98027054		1.69884163		-0.878193027252472		0.3289740328854034		-1.3208823232486226
H		-2.85632994		2.51362564		0.80978177		-0.6628033369068317		-0.005548389115716455		0.03795117901222034
H		-4.11511424		1.23906296		0.30585253		-0.5527174429634286		-0.06099422794667196		-0.030431525132687813
21
Lattice="50.0 0.0 0.0 0.0 50.0 0.0 0.0 0.0 50.0" Properties=species:S:1:pos:R:3:forces:R:3 Energy=-17618.048495099472
C		1.59372447		-1.48659762		-0.81963395		1.7035538962639256		-0.20146063633681785		-0.6911117479253044
C		0.78526029		0.96807627		-1.85208731		-1.1387074800096126		0.014748413151815605		-0.17627827533848098
C		2.39996528		-0.83995272		-1.79804405		-0.5164293562947935		-1.4956972295340534		0.053405205704901586
C		1.91601529		0.32754054		-2.36408417		0.0004527712598252383		1.1939012993125266		0.5728691835928043
C		-2.6534035		1.824518		1.08644865		2.639931038594594		0.7237101473473477		1.3005738481729157
C		0.48491356		-0.88211398		-0.25739559		-0.7639722338458311		-0.04773967713093619		0.2555825113260107
C		0.12531125		0.37702628		-0.738134		-1.1382449385579227		2.6776891791843966		-1.1096123114357366
O		-1.37841152		-1.10912124		1.22991013		-0.4609788894782179		-0.31225749171558087		-0.18391522294244977
O		-0.24974369		2.14081395		1.58328518		-0.08315775392507009		-0.2330933808482129		0.1874528551503927
O		0.32603272		-2.61013112		1.46016603		-2.4818413638075385		1.4185802823946698		-0.24076344426039611
C		-0.33908243		-1.54578365		0.77109247		1.6891698598465927		-0.3585026380236255		1.7573138113555706
C		-1.1612633		1.71849277		0.91557452		0.3654657509213194		-0.1857444599697937		-0.032696255606875564
O		-0.99334938		1.11844677		-0.31097392		0.853910243814542		-1.5221092977336919		-0.9882273448672431
H		-0.40464567		-2.66530356		2.17205177		1.3048849196220886		-0.5568258086424447		-0.6659522697447554
H		1.83822848		-2.46896293		-0.42080896		0.3296236478002668		-0.4113972226484515		-0.012403361416089295
H		0.27835763		1.83251702		-2.4175579		0.8652079794660088		-0.8036737684416053		1.118937033973264
H		3.27080777		-1.32923421		-2.2879555		-0.18232134469491507		0.04918864800650184		0.5683723242320187
H		2.51006946		0.90529853		-3.05786643		0.3417186311078755		-0.005628041890443233		-0.9436358806653564
H		-2.72532294		2.48542787		1.93056905		-0.916524626682658		0.8099382611989261		0.6502896237447362
H		-2.88775033		2.20543921		0.13481432		-1.522546539530659		0.7679293672391977		-1.5256859078649683
H		-2.99288742		0.84564665		1.30105984		-0.8891943147139452		-1.5215558934976627		0.10548557339297893
21
Lattice="50.0 0.0 0.0 0.0 50.0 0.0 0.0 0.0 50.0" Properties=species:S:1:pos:R:3:forces:R:3 Energy=-17617.895125927007
C		2.16071555		-0.94739622		-0.23421983		-1.20783415855397		1.7244738825062242		-2.7322300411383886
C		1.02577839		1.33816463		-1.50635375		2.7046302261404036		-1.2001362758060043		0.2046557976088793
C		2.82992609		-0.37901715		-1.3483948		-2.1870902047188676		1.7998023703137829		-0.32115808508206484
C		2.26916369		0.79318645		-2.03227955		-0.8148185748793616		-1.6384355674871294		2.970087110429412
C		-3.16216486		1.82585963		0.21704414		-0.8230172570934758		0.2633978934866624		-1.8663926556280575
C		0.84445726		-0.54314006		0.10265229		0.22454060631210468		0.44117141955690925		1.1698133026471371
C		0.38339923		0.73562806		-0.41181221		-1.5739930788770435		-0.9467631648149908		-0.2698704913306968