21
Lattice="50.0 0.0 0.0 0.0 50.0 0.0 0.0 0.0 50.0" Properties=species:S:1:pos:R:3:forces:R:3 Energy=-17618.18126355567
C		2.28107917		-0.23790612		0.17153941		0.7535624543686589		-0.040827472075062446		-0.31552171281750546
C		0.7420757		0.45489753		-1.9914561		-0.3884919848413516		-0.00743197926306438		0.7929247061964233
C		2.93391082		0.01774427		-1.01961531		-0.44962371538300056		1.0735419457794921		-0.9848538004605613
C		2.14350373		0.37476986		-2.17647189		-0.16355553149254792		-0.39654874216311864		2.283912754673857
C		-3.53735722		0.54660501		-0.31077429		0.6268385921668487		0.2156356934923755		0.9103939341318181
C		0.91767253		-0.24551483		0.31990931		-1.5336652749827555		-2.2198673472299686		1.7347923878225577
C		0.11847208		0.08113415		-0.76614727		-0.9528004234783688		0.7671313482521188		-0.23788329454287063
O		-0.9055433		-1.03531866		1.69617489		-1.6570219691136272		-0.30378724958969633		0.8131993969771041
O		-1.6737373		2.10501337		0.24623684		-0.8924143128421672		-2.0139131425443617		-0.25669127383644247
O		1.15053222		-1.7987588		2.22985192		-0.7914818031242259		-0.6330475490967292		0.8927726731953443
C		0.27440123		-1.04898853		1.5026588		1.5336064995653818		1.1800229988793371		-1.1067891373633998
C		-2.10542348		1.00418464		-0.10549046		1.0948545908906187		1.5926751769617509		-0.37991720166251713
O		-1.30212834		0.00600655		-0.64607741		1.38151613395962		0.09925728176761917		-0.8284019183623685
H		0.58380341		-2.30661434		2.92540716		0.9323050806277378		1.0724987978207396		-1.3510284045126804
H		2.82942396		-0.48126326		1.04656392		1.0041892158486279		-0.3937039194024926		1.1112862538344974
H		0.01119539		0.91859978		-2.64670417		0.06125005270733414		-0.0658617889556211		-1.0987566512551066
H		4.03188522		0.12561882		-0.9426853		-0.11439244025108106		-0.29040779458428245		-0.6295148019847185
H		2.65646206		0.61782884		-3.09208914		0.08311445654849169		0.3133317500221123		-0.8113081963645142
H		-3.56464125		-0.51199946		-0.53313645		0.005376536583026399		-0.7212519670742431		-0.1997650452497676
H		-4.16908467		0.73362453		0.56335412		-0.1254927151827602		0.27761208283174044		0.34597000154255025
H		-3.93180493		1.10289234		-1.15031451		-0.4076734425744589		0.49494187617135527		-0.6848206185396373
21
Lattice="50.0 0.0 0.0 0.0 50.0 0.0 0.0 0.0 50.0" Properties=species:S:1:pos:R:3:forces:R:3 Energy=-17617.402674741475
C		1.79834125		-1.38568338		-0.37788807		2.193344053109263		0.6185386599117809		0.3120415190533133
C		1.51996878		1.37464931		-0.64760492		1.186189635451826		1.872602795265374		-0.34931870909307144
C		2.88398		-0.53894372		-0.72125465		0.33697376313991934		-0.9434091093699756		-1.0823227771625423
C		2.7251082		0.79864706		-1.04256887		-2.1666493692544284		-1.9551066662443979		1.1854244751626493
C		-2.89861384		1.38446172		0.82168692		1.7934463462853107		-0.5650928821996104		0.01669808064940492
C		0.61641963		-0.77153059		-0.07819347		-0.6399849509632008		2.7037430927191077		0.1538114106137218
C		0.50907578		0.6862659		-0.10779286		-0.36397276276030116		-3.2600694388690283		1.2180912659277439
O		-1.64846727		-1.11389925		0.53117512		1.972891243651196		-1.351392421292726		0.6868388316464653
O		-1.74527777		1.29479543		-1.32934602		1.6469181509080006		0.3873566885466984		3.2933721662803763
O		0.04211239		-2.59080793		1.24791527		-0.2147739111478654		1.5648435513062648		-0.7694117624553524
C		-0.44869248		-1.44555172		0.58329209		-2.511370483166385		-2.103947568880156		0.5852310988265631
C		-1.61074951		1.34379516		-0.07800914		-4.643972276434955		-0.6613388365684079		-1.9878333122901783
O		-0.51016824		1.22859162		0.67915647		1.2276668252858765		0.4578486742710241		-1.4209452858906246
H		-0.66903919		-2.92523726		1.80038633		-0.8911458848278447		-0.41916365100565595		0.3398902682555931
H		1.93979025		-2.44445381		-0.13918149		0.022280665436647078		-0.1356550002733863		-0.1900080174332679
H		1.51903199		2.43312946		-0.54391174		-0.3776842500229202		1.5712003980877365		-0.3110257276317815
H		3.90247406		-0.88729957		-0.84817882		0.4241970481659891		-0.8566362301888581		-0.18688001337475915
H		3.44141636		1.29979901		-1.59890387		1.9620049873434116		1.5511433768973835		-0.8047677728201155
H		-3.69905296		1.29612844		0.10689651		-0.9809713319018643		0.6196675284486284		-0.40079682158579694
H		-3.00494491		0.4770249		1.48315494		0.5512065599246796		0.5456486063053484		-0.3417113291750084
H		-2.83759086		2.27544877		1.46181906		-0.5265939553782296		0.3592183817107926		0.053622412496667826
21
Lattice="50.0 0.0 0.0 0.0 50.0 0.0 0.0 0.0 50.0" Properties=species:S:1:pos:R:3:forces:R:3 Energy=-17617.826209227806
C		2.30117336		-0.42818389		0.10049697		-0.9106444109979861		-2.179728467993103		0.4414334149650648
C		0.91204598		1.90106903		-0.65313517		1.7967167380347284		2.1926380281918973		-0.7383055798633905
C		3.03466215		0.65133162		-0.30642388		0.06843839423853572		1.4646113586567575		1.0551568101054027
C		2.33940083		1.8563896		-0.59107971		-1.6580281446094818		-2.02901014585749		0.5121541774452069
C		-3.57271056		0.62403549		-0.65588397		1.6793067997373328		2.42151526271821		-0.9353974491969724
C		0.87588811		-0.38850885		0.09129723		0.49453507623535553		-1.4183615843630928		-0.4409168803478082
C		0.25513707		0.73005367		-0.46239415		-3.173977542060866		-0.888930982332166		-0.5549908637661695
O		-0.86865258		-2.05976324		0.01733358		-2.0174431642870627		-0.8987126927386392		-0.8051578091637581
O		-1.90962033		0.40618224		1.13325591		-0.4140322433943034		0.41358877952778056		-0.936466873829634
O		0.86899799		-2.24338346		1.46797866		0.7652238468457342		0.5311654281516223		0.3315709498829837
C		0.1333105		-1.63811913		0.49211611		2.017957899132134		0.5010787393696884		0.7630543500311939
C		-2.15427686		0.59571968		-0.05142535		0.2915974439989398		-0.46626070662222124		0.9873394401150111
O		-1.1198989		0.74160362		-0.98242664		0.37707109335033		-0.042842959812580926		1.3500919059114382
H		0.58438761		-3.10238719		1.81500211		-0.8081162746823871		-0.2844124963238595		-0.3792730889083353
H		2.84056738		-1.39768194		0.38846478		-0.8319621248557245		1.2047462122821058		-0.03642564068567459
H		0.31289221		2.857252		-0.86200074		0.9091213923525001		-1.1891403876610878		0.020684987416926807
H		4.06988125		0.5839494		0.0752816		0.32514200936996485		0.5380588641547038		-1.0311002323201668
H		2.86924371		2.73379713		-0.6799494		1.5392752163072185		2.5654261779612115		-0.40122717282639636
H		-3.5915026		-0.07763104		-1.47597075		0.0023078221625163764		-0.32798107285959704		-1.0702622980588343
H		-4.27949766		0.26837531		0.04643785		-0.9810560240387107		-0.32633746947767833		1.4445435902553538
H		-3.86940795		1.70763888		-1.01218057		0.5285662485832945		-1.7811097821283368		0.423494262838558
21
Lattice="50.0 0.0 0.0 0.0 50.0 0.0 0.0 0.0 50.0" Properties=species:S:1:pos:R:3:forces:R:3 Energy=-17617.939285929646
C		1.87945865		-1.16412945		-0.39656675		2.7227850938188656		0.2937813904130269		-1.6501546040962052
C		0.84721249		1.22292441		-1.42414783		0.8218405146164923		-4.096177570353478		2.7974598015245022
C		2.51288442		-0.52587724		-1.47833315		-2.3071041562584615		0.9391572247146761		-0.41703302927032393
C		1.88492365		0.61380279		-2.06482577		1.8513010516314863		0.036757210144317765		0.26468817587752386
C		-3.1626153		1.63039924		0.31514619		0.8243160241246406		0.5560740180895039		0.8940619271449567
C		0.87519153		-0.51461311		0.29173265		-0.5677292399190856		-2.3661406434437406		1.5313623379161714
C		0.34027175		0.63304899		-0.23341606		-0.3368239192499556		1.0430134386370338		-1.643871547974342
O		1.00970074		-2.31920771		1.96895589		-1.202168681402067		1.8995781407370311		-1.605006856022792
O		-2.15319131		0.41852884		-1.41514467		0.8785188374401213		-0.6659885737208413		0.2150435684433252
O		-0.60213554		-0.72286366		2.21105217		0.19637196045935665		-1.0597939488525374		-0.6212037111421002
C		0.44127522		-1.30523283		1.49536698		0.12380334616526578		-0.686463861967119		2.474408510369413
C		-2.00339315		0.95197938		-0.33533844		-0.7411736968183038		0.592851282838175		-1.7264485925482242
O		-0.78689569		1.20804698		0.26298382		-0.9432600368109485		0.3110111751881096		1.2362221195030447
H		-0.86655053		-1.43368575		2.86050116		0.4074322216795311		0.6086475233564255		-0.28474375725012796
H		2.29273399		-2.13412159		-0.11042139		-0.14683539077835425		-0.12298136449708785		0.6328475686958819
H		0.34829058		2.0517934		-1.6399306		-2.131704375434785		4.238743078754678		-1.8652872355516845
H		3.36631766		-0.85672809		-2.01192168		1.2190657140110703		-1.0937389378238191		-0.41396883999130907
H		2.35215479		1.12409283		-2.91797049		0.01692711451553344		-0.16800523682207172		-0.26869102348440355
H		-2.95846325		2.73303815		0.33870872		-0.14713728970696682		-0.451958379862113		0.5162766841913953
H		-4.07367372		1.45160806		-0.22268636		-0.6804098911334465		-0.19116779062964473		-0.9831809893471738
H		-3.33747586		1.1594578		1.28461823		0.14198474762794938		0.38280182509947525		0.9172194930124726
21
Lattice="50.0 0.0 0.0 0.0 50.0 0.0 0.0 0.0 50.0" Properties=species:S:1:pos:R:3:forces:R:3 Energy=-17617.636385086116
C		2.25363831		-0.69372218		-0.16742645		-1.0813687436380066		-0.17684412371362204		1.5498976260125992
C		0.8507675		0.91187798		-1.82338336		2.27722701238099		0.5036269082520711		-1.6751100395329739
C		2.92773921		-0.16999403		-1.25426768		-0.005458503350563188		0.02910447596717845		0.10793691453177835
C		2.22658492		0.65340923		-2.16044554		-1.8312557032493084		-0.17885817163339204		2.8372274134705187
C		-3.59094786		0.45165429		-0.25597849		1.9164800584419674		2.018265814442053		0.9896922051601044
C		0.8940997		-0.44816212		0.17721452		1.1016733620590302		-1.609063388262864		0.8923376939691247
C		0.2641762		0.2948384		-0.74057777		-4.963216226664579		0.7652299146491026		-1.8086228995290405
O		-1.02569789		-1.06258326		1.59928724		-2.3315103526462586		-0.30503027510517117		0.3026445999401135
O		-1.69259773		1.59144098		0.85577249		0.9849314477748525		2.7634479124499802		2.4717155369591857
O		1.08670681		-1.39558072		2.24604228		0.1565553947098938		-1.558398978486263		3.4964079632339984
C		0.14094359		-1.0230853		1.39200075		2.666187092256775		0.7620347533770413		-1.3161270680240527
C		-2.08023164		0.90682919		-0.00336906		-1.4490251772635934		-3.663592092562954		-2.6815056732369773
O		-1.20163038		0.16931141		-0.84056131		0.3982802772718177		1.2541836402267148		0.15926081225923228
H		0.67281363		-1.75155737		3.15140506		0.7224456788318336		0.9417432916570807		-2.4930002084683425
H		2.72874209		-1.32002968		0.55874881		1.0143709899009206		-0.5968633864162948		0.5520644341924439
H		0.3271209		1.65773162		-2.43590645		-0.4397558215998702		-0.28427375959938384		-0.03623846437837602
H		4.00315083		-0.3764661		-1.19105198		0.21046988452124726		0.09734664361542535		-0.8686817968944577
H		2.70449101		1.26073384		-2.87404466		0.836021382465106		0.7306902295256484		-1.560904775589191
H		-4.09299443		1.10017825		-0.98473943		-0.10485117940859916		0.280492592503703		-0.15783292442926894
H		-3.60039279		-0.54060347		-0.60665712		0.010802592612187006		-1.8658526211282636		-0.6920672726896511
H		-4.0824587		0.51566904		0.73130165		-0.08900351682790401		0.0926105688201472		-0.06909407695676759
21
Lattice="50.0 0.0 0.0 0.0 50.0 0.0 0.0 0.0 50.0" Properties=species:S:1:pos:R:3:forces:R:3 Energy=-17617.593484558096
C		2.01486318		-1.17382563		-0.31832571		1.3276920441340445		0.42234960772853986		-1.5006111218212652
C		1.01842035		1.25988848		-1.49488807		-1.3688220322024687		-1.0367824730644266		0.6627275922088507
C		2.68737953		-0.52445027		-1.44561297		1.5198985604250712		-2.673297426519248		1.617080293486236
C		2.1521085		0.56551657		-2.01890513		-3.0752586492870417		2.0858807357725992		1.2632791232098641
C		-2.80850334		2.13997664		0.71272637		-1.0280383056118996		-0.448295020711493		-1.8486799148424944
C		0.83949218		-0.56019584		0.11214103		-0.15112172821549136		-0.05583222420816467		1.7586036309478699
C		0.35108373		0.68861239		-0.39322471		1.454852376801885		-1.0962395412984405		0.5764795265970438
O		0.63764655		-1.49262006		2.41651167		0.29482016749647155		0.4585960939486572		0.7534066455194516
O		-2.41943656		0.22023645		-0.77296334		1.7183608277228033		1.3494575633491206		1.3858665432865631
O		-0.8862941		-2.01055814		0.78774466		1.2946819082580063		1.7440297442759913		-0.4067905771843466
C		0.2115726		-1.2978056		1.31384097		-1.2908014965818075		-1.0718319565149574		-2.4740371402344374
C		-1.96062153		1.07263702		-0.01560214		-1.372717973341526		1.1722118847498684		-0.545379000431951
O		-0.6235843		1.3463625		0.36599597		-0.6969198184563664		-1.0439487545308395		-1.7177387750334103
H		-1.3130036		-2.41819745		1.53338081		-0.630034319081597		-0.869461715315556		1.258649800616221
H		2.39343554		-2.12108872		0.19864211		-0.31678381591814725		1.1537302298645704		-0.7048791309698007
H		0.4553688		2.09408346		-1.95367477		0.7757078797810766		0.20217452882973705		-0.1880487340100014
H		3.70526741		-0.79152317		-1.87620068		-1.0288844556494263		-0.505708936138393		0.6566507899794529
H		2.526055		1.01264192		-2.86616892		1.5830470642557999		1.041882461795626		-2.4332925091019733
H		-3.00342893		1.68006774		1.6422773		-0.7550939576544483		-0.8741396831802715		1.9120769929230803
H		-2.39613394		3.10437064		0.99624791		0.8840882067573151		0.45381620755617624		-0.3245596545127791
H		-3.80631393		2.3225355		0.19945589		0.8613276192118722		-0.4085912749670337		0.29919567078988774
21
Lattice="50.0 0.0 0.0 0.0 50.0 0.0 0.0 0.0 50.0" Properties=species:S:1:pos:R:3:forces:R:3 Energy=-17617.981125710943
C		2.39012435		-0.43447327		0.15160683		-2.407009253168759		1.9862893134432147		-0.5599735587729322
C		0.77533517		1.90973084		-0.34603895		0.7138057953219441		-2.3658185870666495		0.23971386854383808
C		2.9578194		0.82988423		-0.07123622		-1.0218579907708005		-0.5903998388552507		0.11435850168986758
C		2.16180904		1.98105611		-0.33786904		1.1170184768234535		-0.4773124391269527		0.14625154468135756
C		-3.51032723		0.60345385		-0.51063374		0.32089619251803414		2.3801353634263047		-0.35796214072526955
C		0.97801716		-0.5258647		-0.03112607		-0.9878937699481647		-0.7478220552717741		-0.2843589145347922
C		0.15787087		0.61682291		-0.25072284		0.8002734845624522		1.027266203344293		0.09390033699038419
O		-0.59868449		-2.40926781		-0.76731939		3.394352704204641		2.1519752609828453		2.54954977044761
O		-2.17621981		1.42199866		1.40339326		-0.24096219053174467		0.15083258195836505		-0.10257066236124088
O		1.03691085		-2.70269162		0.83368928		0.0031023958714112747		1.2625944898704757		-0.4256428308736833
C		0.35854718		-1.91012559		-0.05778773		-2.2496886467476256		-1.2243417204620175		-1.5097750475695284
C		-2.32545755		0.92135091		0.32677247		2.0266952788724186		-1.1192939545086924		0.09934799028577153
O		-1.16203791		0.46390273		-0.48722132		-1.6866784609211491		0.08029750454571072		0.23133279227423262
H		0.58719131		-3.52949157		0.69444178		-0.5437548860116989		-1.7111680638942315		0.012756322452709449
H		2.84468914		-1.33433161		0.49300585		1.152310209610161		-0.8450915657935324		0.07185117367886297
H		0.24634312		2.80641338		-0.48509013		-1.3488270774414868		1.3777671570750296		-0.30311865993379083
H		4.01737322		0.80826316		-0.03555577		1.5869088097233313		0.7169830617162749		0.028062973514424296
H		2.65941147		2.94790315		-0.55670661		-0.09122957791113338		-0.216970044590752		0.205256304454108
H		-3.27843557		-0.19337246		-1.19331644		0.07515036178324996		-0.6646421898598529		-0.7155688007328593
H		-4.48249886		0.53122597		-0.03606173		-0.3345133717181296		-0.2753031808059127		0.7711665403362764
H		-3.55190825		1.60971693		-1.04725428		-0.2780983298542172		-0.895977244704833		-0.3045775552674084
21
Lattice="50.0 0.0 0.0 0.0 50.0 0.0 0.0 0.0 50.0" Properties=species:S:1:pos:R:3:forces:R:3 Energy=-17618.035507004482
C		2.22935135		-0.16718839		-0.23875265		0.9456930202734551		-1.1547320859071797		-1.075933534481731
C		0.97311163		1.78563415		1.07434533		-1.6413100093557231		0.6112561131621806		-0.47659957507528233
C		2.99527889		0.88206608		0.2279039		1.0870658453583129		0.08924926286432705		-0.8243380327673668
C		2.30901518		1.92011292		0.87888847		2.7572866751940484		0.3619431853776728		0.5455002536551955
C		-3.4512562		0.27797259		0.44524026		0.5435794853567001		0.7464043490101749		0.16880047901777842
C		0.86148184		-0.34212616		-0.01247418		-0.9307442153442926		-2.364998867969219		-1.82506551537222
C		0.19248921		0.74457108		0.53704526		0.21845485664384157		-0.433148755062543		1.459158717421313
O		-1.12082628		-1.91960534		-0.44641145		3.9729807988368098		0.46158541270475273		0.15633577108119262
O		-1.88416202		0.70472688		-1.32184704		-0.00011030032394379739		-0.22364123443994757		1.2791190724811925
O		1.04574239		-2.57279425		-0.98821576		0.11206888293745662		0.008815695541387756		0.33674004986610834
C		0.13420927		-1.69966799		-0.48586478		-2.4896296979633448		0.9126789763206716		0.1867722841539376
C		-2.1156071		0.49629286		-0.14495895		1.5543357099560107		0.238211881521892		-0.9685109948405864
O		-1.11238024		0.67887188		0.89247898		-1.7446337992435288		0.030346678729654124		-0.8119514863656969
H		0.71313289		-3.49035044		-1.16761019		-0.46753170573966596		0.8563992773251133		0.15923417563088593
H		2.77516711		-0.82629587		-0.93668493		-0.3144733712304462		-0.5429221057104076		0.40647129759862766
H		0.47090455		2.60540909		1.55036198		-0.7561183365604083		0.5998056539852534		0.573209032003501
H		4.09557533		0.80701502		-0.08650365		-1.2069283589240074		0.7228190544272441		0.7245863792914048
H		2.87263206		2.79639297		1.30635182		-0.485986415464243		-0.5156265036338449		-0.31903543376641164
H		-3.46193191		0.00131886		1.4846565		0.14341443523009825		-0.6790647414019566		0.8453198797507868
H		-3.792012		1.30619953		0.44372163		-0.8578270108888896		0.9048621543422714		0.000414153290929298
H		-4.10407541		-0.29251272		-0.19158998		-0.43958633448205264		-0.6302433497654345		-0.540226972573558
21
Lattice="50.0 0.0 0.0 0.0 50.0 0.0 0.0 0.0 50.0" Properties=species:S:1:pos:R:3:forces:R:3 Energy=-17617.44604845995
C		2.39351577		-0.14591624		0.18810854		0.12198382790772391		-1.2820651967048344		0.7669406752445741
C		0.67256346		1.93085641		-0.20524026		2.214118977713405		-0.2626257912190558		-1.1305612482991918
C		2.98121543		1.0685726		-0.23672047		-2.407680722460161		-3.8703534693627546		1.6105377102152147
C		2.07611537		1.990067		-0.49375882		-3.273416857929539		6.053872823221341		-2.5484726325055815
C		-3.5335538		1.1053461		-0.2839088		-0.8037145975591863		-0.28009479142863114		0.8258150800890273
C		1.00070057		-0.38979416		0.44879481		0.6063250973281749		2.1050117484624487		-0.9401984186350556
C		0.1509565		0.71094164		0.2063653		-1.7635009653309748		1.502521965661709		-0.10426450509816801
O		-0.69740196		-1.88256435		1.28226843		0.4543381414899895		0.5247752084516244		-0.6393284454919699
O		-1.97344383		-0.41934255		-1.46587273		0.1023811720611323		-0.4917539139880361		-1.296624325244791
O		1.12191272		-2.687255		0.22575762		0.4506946826775356		0.7857584247300105		-0.3602019829212342
C		0.36091782		-1.66117017		0.69742484		-0.1208746025987301		-1.6196959281145467		1.0673971121614798
C		-2.21223747		0.4076331		-0.64635825		-0.2460016554954463		-0.07230507622406199		2.421360739420564
O		-1.25518276		0.81141043		0.32553951		-0.1008790307729989		-0.38536809454783844		0.03127752090402738
H		0.48431553		-3.39795415		0.25760108		-0.5388176995301996		-1.4494057005256837		0.18867042674495738
H		3.04562593		-1.01046307		0.32252154		0.21673067489007208		-0.36422714770321485		0.11519950952115002
H		0.05813659		2.76543426		-0.56740446		-0.2663105419476529		-0.11580279315775077		0.31359950470126163
H		3.96834541		1.22203937		-0.42394118		3.4603162059997765		0.08217677523981329		-0.643463653487582
H		2.35314208		2.91540335		-1.18130913		-0.16382739993669282		-1.2772298259069754		1.62152305683733
H		-3.9368871		0.99596189		0.77119915		1.1552910951480155		-0.3450403420756133		-0.29363679157343253
H		-3.32047503		2.16561167		-0.32704548		-0.019613763012079632		0.9909252547954648		-0.23424106985991527
H		-4.49449646		0.88644574		-0.81206498		0.9224578585137102		-0.22907423244753825		-0.7713282627226649
21
Lattice="50.0 0.0 0.0 0.0 50.0 0.0 0.0 0.0 50.0" Properties=species:S:1:pos:R:3:forces:R:3 Energy=-17618.076005399722
C		2.19892069		-0.24355392		-0.24677088		0.9561474855228916		0.2948712296044791		0.6246563941028845
C		0.89122151		1.80700756		1.00989238		-2.015456781436888		-1.5529946739895164		0.7867261879452188
C		2.96069686		0.91648861		0.11098927		-3.1213982775229496		-1.4631943723040324		0.6896454478146948
C		2.25231905		1.90853145		0.80132794		1.0504366761494826		1.5333931494282986		-0.9872906405777512
C		-3.45507958		0.44405965		0.27944834		0.7829192583962533		2.2194640439942153		3.1661371687778654
C		0.79181271		-0.41805772		0.04216969		1.9921265917057451		0.6260747174292333		-0.19362036589794282
C		0.12215864		0.61629727		0.77170626		3.2152070318201202		-0.538743497494092		-1.9773070104195065
O		-1.00676257		-2.00197959		-0.24609822		0.003791194397857506		-0.061301834724215916		-0.05596139642902566
O		-1.64481823		0.71373741		-1.22026175		0.9861668114030232		0.6798376150004999		-2.187178547822148
O		0.9865231		-2.40222482		-1.25660354		-0.8143961940584411		0.09421663409648129		0.46446468824721665
C		0.13678699		-1.63842855		-0.47371125		0.2953669382864456		-0.5877913004715579		-0.014953175804470246
C		-2.02847742		0.60059713		-0.1106437		-0.48758867550795615		-1.1187776255796853		2.1574466712710816
O		-1.1821805		0.46251035		0.98931858		-1.1438412016137753		1.152351707214554		0.9402967890405123
H		0.42877326		-3.19718887		-1.43022918		0.20677191832260197		0.11682120710446728		-0.14896354425468897
H		2.82096956		-1.07645277		-0.63596212		-0.6849338499211405		0.07902306015008226		-0.28231375626724314
H		0.2736484		2.56101009		1.45770144		-0.16149772339763746		1.1775525287333082		0.5061137306139574
H		4.00768255		1.00861511		-0.01902735		1.453127115184804		-0.07759234410668446		-0.46497335528891914
H		2.79284639		2.88943357		0.94674373		-0.579810185003647		-0.6436128288907342		0.36672024355671934
H		-3.72108058		1.07263192		1.25585336		0.6223681637461596		-1.4162652097213486		-1.4595109071269965
H		-3.86092687		1.01089583		-0.50353451		-1.972024267678379		0.27825095053555293		-1.7560396754923164
H		-3.66336252		-0.60566238		0.41749795		-0.5834821830607578		-0.7915832588534294		-0.17409494598914313
21
Lattice="50.0 0.0 0.0 0.0 50.0 0.0 0.0 0.0 50.0" Properties=species:S:1:pos:R:3:forces:R:3 Energy=-17617.491204132395
C		2.05454563		-0.98333714		-0.2389831		2.3999810399400094		-1.8005979724639267		-0.9087469368937781
C		0.77827928		1.00916763		-1.76343928		1.3167456240131996		-0.8679187963319038		-1.5636991533065587
C		2.51858571		-0.69446345		-1.53992124		0.12742644184099167		0.7114267536029419		-0.5066218834350354
C		1.9555043		0.38142927		-2.29137096		-0.681777100929725		0.2893542593689163		1.4419979924760935
C		-2.7896071		1.41607557		1.10677941		0.9588915210411262		0.36049945955247653		-2.5838850528728465
C		0.99304044		-0.3065197		0.29238454		-2.7482583494244515		-0.35830600005683705		-0.03010977728797157
C		0.20864416		0.58644142		-0.57780555		3.8026438285931845		-1.047027701941776		0.9759674510053744
O		0.88794855		-2.17506691		1.75028035		-1.1433657018023493		1.0812433766497664		1.111588255607235
O		-2.51456545		0.19277704		-1.10417946		-0.9611288435560307		-1.379049469046212		-1.6971540606382507
O		-0.5833134		-0.40021544		2.18457501		1.480066002414188		-2.41777723873292		0.9329469308111722
C		0.44937864		-1.05300076		1.50184701		0.08745756394256773		0.6276462270796045		-0.9730136648944283
C		-2.14657663		0.84436538		-0.20706509		1.4067960940324766		2.806903771824839		3.689912680913503
O		-0.75312436		1.27612948		-0.04517523		-3.7105124105508964		0.8803625754890747		0.9418811542064949
H		-0.67057839		-1.06553282		2.95276784		-0.41579211205940936		1.0375939132098033		-0.8403229408327269
H		2.54676278		-1.85600549		0.37630345		-0.8900185589528704		1.619371506322583		-1.1218509679858155
H		0.31220059		1.79247783		-2.36567835		-0.24182140177313258		0.30549970711322844		0.09629907335930273
H		3.31819399		-1.31824909		-1.95903211		0.303592925615718		0.17063485825136682		-0.03941105136502426
H		2.41511915		0.9248319		-3.14473119		0.01895355515235263		-0.887792137915204		-0.09131175036691995
H		-3.76032634		1.06850887		1.25404099		-2.1145811885951504		-1.5692324757579792		0.5395330318408673
H		-2.06528163		1.2318207		1.86538912		0.5361806733239125		-0.4476526563074343		1.1757384612143855
H		-2.98365517		2.48784915		1.10446442		0.46852029489016456		0.884818245777842		-0.5497377915550727
21
Lattice="50.0 0.0 0.0 0.0 50.0 0.0 0.0 0.0 50.0" Properties=species:S:1:pos:R:3:forces:R:3 Energy=-17617.31182451318
C		2.01426981		-0.9959972		-0.22881145		3.1108195765706474		-2.038249713459609		-1.917936588360712
C		0.70424214		1.08505128		-1.61600728		0.38745253927109524		0.3592234724949747		-1.9834384228792203
C		2.38068098		-0.66220012		-1.52760347		2.1307560497591806		-0.5385470652155534		-2.145746712247173
C		1.72868765		0.3591834		-2.23215201		0.46167139039316013		1.208071574216277		-0.8636729280579106
C		-3.05269491		1.72010804		0.55860448		2.8584093951209724		0.6138070588359354		-0.2975299559211178
C		0.98725821		-0.32159211		0.28299607		-1.8867949245456634		-1.901412622814745		4.839632041329453
C		0.45769419		0.748983		-0.35801589		-4.536145867915369		1.044038074653306		3.31324159978693
O		0.91998108		-2.17334283		1.85926766		2.5548940653974834		-4.136681032013077		1.8573008750334041
O		-2.01049322		0.10412981		-1.12703788		-0.740715989040484		0.12277804166218166		0.643152550009792
O		-0.77923106		-0.79463201		1.98987897		-0.24008302753012836		0.949130276615506		0.24201726840898424
C		0.41075618		-1.18623218		1.52045386		-1.443595110313562		5.0285672916960005		-3.3846787744410514
C		-1.96112034		0.89771598		-0.21479409		0.8341617549988573		1.6158821594312758		0.005225304297376651
O		-0.70809489		1.38545498		0.26704416		0.3168421285369595		-0.9971780747446105		-0.7097684949332264
H		-0.85046232		-1.37076897		2.76793824		-0.6615229789740221		-0.4151721676745766		0.48076707612610975
H		2.52116805		-1.85001971		0.29649426		-0.5941024844615784		0.5777210608727078		-0.27444530653814847
H		-0.07117938		1.7433207		-2.02709246		0.6680630939860464		0.4549999948557148		-0.7002450775464129
H		3.21537301		-1.23830231		-2.093177		-1.0671745574752194		0.8305179362319661		0.9753168076492622
H		2.06128559		0.8073105		-3.19759287		0.02933890914986366		-0.9996720961952391		0.007259355399437653
H		-2.50098035		2.68173897		0.92359899		-0.9204483357354353		-1.4461948041025143		-0.32743877578905567
H		-3.89153436		2.01402256		-0.06051877		-0.6810138946789214		-0.20874955942216117		-0.3956381602813486
H		-3.2912119		1.08250503		1.40609026		-0.5808117325138817		-0.12287985734582212		0.6366263189546278
21
Lattice="50.0 0.0 0.0 0.0 50.0 0.0 0.0 0.0 50.0" Properties=species:S:1:pos:R:3:forces:R:3 Energy=-17617.44059849452
C		2.34082485		-0.42153986		0.27489478		0.45501943239531883		1.8724158246463256		0.2992110459865587
C		0.8365935		1.93206713		-0.58971728		-1.3714720167684917		-3.7726019284276395		1.6845394573896388
C		2.96053478		0.92076503		0.2860965		-2.23490320971085		-1.6380043934935309		0.155791828504653
C		2.10309117		2.01574417		-0.07350633		2.4421677513916715		0.839869758196402		-0.6582529986011036
C		-3.49937922		0.69854354		-0.80151205		0.6449369984207466		1.4013250436986773		0.41571960695136245
C		0.94959522		-0.56066563		-0.09598981		0.9078798066547737		-0.8755592920581814		1.3766973210658686
C		0.24954635		0.59152512		-0.4025706		-1.7682177568528359		2.4798340007558863		-2.7530339163636874
O		-0.58466589		-1.94755396		1.1880184		0.6326336014940497		-0.5915500475480129		-0.91560273194715
O		-2.09565863		1.16750421		1.1166302		1.1342634311069577		-0.5064105901804505		0.6286833586570508
O		0.8307961		-2.94736837		-0.39144854		-0.031074455179433406		2.454665472292347		-0.39147837253988776
C		0.25230038		-1.90037523		0.30203742		0.6015429483649462		1.0340881626805762		-0.2622255218849866
C		-2.15971356		0.70397707		0.01500603		-1.7561022047202492		1.2854984421260145		-2.1951539554411275
O		-1.10834718		0.48203787		-0.94200475		0.6199855739048487		-0.3219132694911271		2.577814267024755
H		0.81907684		-3.73239297		0.12612876		-0.5774695041432285		-1.8316080472211793		1.1628114175143598
H		2.85761743		-1.31787898		0.71035546		-0.07751181715689612		0.5750621288678193		-0.5504866510504544
H		0.21493482		2.78380686		-0.86211532		-0.1208631869008674		0.1519111597181418		-0.239006815185224
H		3.98265759		1.13241834		0.67914869		-0.4494619929966121		-0.34322591460225343		-0.28657109166116146
H		2.52710163		3.0356569		-0.15398741		0.35094997118000343		-0.1393469500907256		0.403854325996694
H		-3.2143959		0.34064098		-1.78917512		-0.35050470754129515		0.1766087135117504		-0.7880422327893652
H		-4.3077986		0.08173371		-0.42407772		-0.21563235105831657		-0.7544526216916384		0.6382357266650208
H		-3.98718326		1.76958832		-0.7704894		1.1638336881157596		-1.4966058059553884		-0.30350401686975115
21
Lattice="50.0 0.0 0.0 0.0 50.0 0.0 0.0 0.0 50.0" Properties=species:S:1:pos:R:3:forces:R:3 Energy=-17617.74663921476
C		2.21961567		-0.83191823		-0.01963908		0.6694637795449763		0.43082458068416923		-0.7864828073236683
C		0.68143163		0.73319391		-1.689836		2.1039736912878784		1.4580358138437088		-3.240434027168659
C		2.76337799		-0.3405056		-1.27890585		2.215184751379633		-1.616595332015321		3.1046883697991827
C		2.03032856		0.4164074		-2.09527985		-3.022180230788976		0.9478773266419793		-1.8346323329797372
C		-3.0145901		1.537114		0.68792007		0.5079087205477132		0.7650716375408979		-2.595526802122068
C		0.88202329		-0.58362128		0.35125197		2.598507533393735		-0.43377301890062125		-1.410197509197004
C		0.210139		0.26660233		-0.52360171		-2.2662413572265		1.495124490602545		1.5015223721898472