21
Lattice="50.0 0.0 0.0 0.0 50.0 0.0 0.0 0.0 50.0" Properties=species:S:1:pos:R:3:forces:R:3 Energy=-17617.856997656225
C		1.99208111		-1.11664409		-0.39290447		-1.7081066514065886		2.248802233235205		-2.8312023418359398
C		0.89829485		1.26454167		-1.49128063		-0.07977258813227563		0.6122863541832594		-0.6056881322406727
C		2.41312772		-0.66962823		-1.6726974		-0.42508186759447447		1.7894205644385806		0.22646358575928527
C		1.95699309		0.62983558		-2.17518997		-0.5678541955308263		-1.9326587248386187		0.06561583723094828
C		-3.11208126		1.63587113		0.52393109		1.9956442721534602		-1.8208216525586622		1.7230372015035833
C		0.82824223		-0.50708503		0.11748894		0.7045793917678109		-0.4501350049498878		1.9350272764568819
C		0.27802077		0.67220352		-0.40126356		0.47942352047855574		-0.9233351188990161		0.5775912715870974
O		0.8539491		-2.21606145		1.83105682		-0.8646972555418082		1.0266990694175908		-0.3381613556720787
O		-2.19078509		-0.17495406		-0.95657492		-0.7000649460616691		1.6743020446657808		0.5234135008160272
O		-0.36579459		-0.28483305		2.24132414		-0.2279537457068691		-2.4490993939871495		0.12632081607636902
C		0.42482128		-1.13239384		1.43031897		-0.15900725006931765		0.3938665673860052		1.170429904597911
C		-2.10524216		0.81714102		-0.24484997		1.5167464908413384		-1.9097479334487746		0.5215589127118982
O		-0.8048409		1.19855325		0.23374886		-1.31798582131524		1.2902821337511163		-1.0117181256994003
H		-0.76153001		-0.91567962		2.94306521		0.9572948660022195		1.0295716086698745		-0.9315272190891375
H		2.25204218		-1.96566968		0.15751649		1.1349614341825816		-1.9452396980583915		0.6159506389310035
H		0.44158274		2.21049721		-1.82211643		0.2048820546836358		0.04822299309585355		-0.28772135177598607
H		3.02672192		-1.29508855		-2.30781376		0.7953007654358036		-0.18468660530118214		-0.21158749162641957
H		2.18340588		0.99030674		-3.22071746		0.2988180785853566		-0.266160800901814		0.9458615303720861
H		-4.04614666		1.1560148		0.62565984		-1.8194758343403608		-0.6947645655531234		-0.5683212107019486
H		-2.74934059		1.66421881		1.59973703		0.11607008503833814		0.17741079484176223		-0.8254274605823194
H		-3.13305183		2.6176753		0.17181208		-0.33372075204760765		2.2857850833895297		-0.8199156839750636
21
Lattice="50.0 0.0 0.0 0.0 50.0 0.0 0.0 0.0 50.0" Properties=species:S:1:pos:R:3:forces:R:3 Energy=-17618.062310648445
C		2.04587985		-1.03487627		-0.35312168		-1.261469889364811		0.9666620117412636		-1.9332930159788733
C		0.68555239		0.99592928		-1.52156996		1.0310808976246877		0.6091550591127542		-1.5926233949448687
C		2.52187393		-0.58313411		-1.59016212		1.3881013461204081		-1.0647161200918027		0.4788886281850063
C		1.868863		0.48575854		-2.14205816		-0.867197087685493		2.0016383877064468		-0.3279305249722139
C		-3.05081502		1.6326268		0.4144013		-1.2923892041818488		-1.2137880106320627		3.2367381692745743
C		0.86061224		-0.5780785		0.24956942		1.088205666794461		0.35509695482791553		0.32777415048031977
C		0.19169637		0.49642495		-0.31778003		1.018077183629557		0.7932001741849393		-1.4528148289995775
O		0.97045274		-2.13279943		2.02455656		0.4146866919830364		-0.5888826823248834		0.08965313174276743
O		-2.21365598		0.24578192		-1.32397577		0.0929535539766531		-0.1469617862078432		0.20881435122084147
O		-0.47438673		-0.4599903		2.18620767		-1.5697811491642637		-0.17860301535954165		0.9873118264674784
C		0.49447333		-1.11829556		1.54689564		0.11448854808579012		-1.2471256536238104		0.61795872189153
C		-2.07531575		0.90520155		-0.32133781		1.7761861196492603		-0.7628645511987107		-0.9263245404992365
O		-0.81989111		1.16374031		0.28141368		-1.1118795615909842		-0.3996954124302947		-0.4360760073892679
H		-0.83154317		-1.12101144		2.85368231		0.6509866498011735		0.7547924186802728		-0.3863336980364243
H		2.56294748		-1.82164927		0.04281849		1.4229598480310193		-2.5245037807588764		1.8388600492656872
H		0.22410234		1.87038925		-2.03243306		-0.040978292984212634		-0.258883704890833		0.4905829822041087
H		3.46685888		-1.03990999		-2.05630482		-1.1245446613049166		0.630735356058905		0.6473682335331301
H		2.37429874		1.09860677		-2.92930739		-0.6349280539203305		-0.5085608037215739		-0.0834929229280844
H		-2.68539592		1.75097435		1.47694343		-0.4497232684958935		-0.28579965788036665		-0.514201084062879
H		-3.01402992		2.60750934		0.05915756		-0.5649064258011861		2.629331203174626		-1.129325164762147
H		-4.03259197		1.12465756		0.3786268		-0.07992891120210739		0.43977366505553855		-0.14153511311393327
21
Lattice="50.0 0.0 0.0 0.0 50.0 0.0 0.0 0.0 50.0" Properties=species:S:1:pos:R:3:forces:R:3 Energy=-17617.805568054504
C		2.24561016		-0.4222372		-0.081415		1.1455645606145455		-0.03423012430753735		-0.05632232788532474
C		0.87977737		1.97808982		0.52970296		2.3820815342236474		-2.548252237545944		-0.8352561707538672
C		2.9871315		0.77437901		0.05577467		-1.5282075429631292		1.6287861660473262		0.24219138351242187
C		2.28962907		1.99889192		0.31825441		-1.0278918555780572		-2.467936118213628		0.9308343067976957
C		-3.40632548		0.31564005		0.12847925		0.20281802451916955		1.4059785860837315		1.765323466068138
C		0.85040503		-0.4656913		0.06275728		0.39042257475377395		1.137479212626059		0.6758460288252954
C		0.18724723		0.78475366		0.4819743		0.07476001690723254		-2.259234329887478		-1.9728958202147537
O		-0.9667356		-2.03789356		0.39476003		0.23847464826098422		1.0456114354979251		-0.2580886683833761
O		-1.79696407		1.13747709		-1.45812416		0.6098118216942975		0.8926275601351253		-2.138039316417655
O		0.88656382		-2.94492237		-0.52278389		0.36236299509547104		3.0654490167006614		0.3124792236488423
C		0.15289181		-1.76223064		-0.02577021		-0.6298196833929529		-3.662370612891644		0.3403162486208847
C		-2.06203538		0.79920317		-0.35508702		-1.199368390147518		-1.4397215891937307		1.2255032420085175
O		-1.160496		0.68844695		0.64425614		0.352359038535112		0.5502440417598404		1.7367831415480397
H		0.29162243		-3.69426263		-0.33916072		-0.4075268382744292		0.14143170334635705		0.12282427009631942
H		2.79628116		-1.37689257		-0.20248205		-0.22939716299969073		0.20069563031382862		-0.28827984679619756
H		0.41674559		2.88537015		0.53805837		-1.9398052602330527		2.92859325984713		0.725249621052816
H		4.0579093		0.9109554		-0.03720308		0.679314806891625		-0.6950097459468594		-0.02838770383876233
H		2.74900652		2.86577002		0.75329596		1.0110691792713489		1.0604768338418025		-0.5340482518163949
H		-3.36838431		-0.52582174		0.85404377		0.19315139668844752		-0.41040369697995827		-0.831529202512003
H		-3.82264555		1.09135021		0.83672728		0.13410827605711337		0.04026537751047985		-0.5509446159385865
H		-4.04614758		0.28515234		-0.73493867		-0.8142822427680637		-0.5804803687434883		-0.5835589047779253
21
Lattice="50.0 0.0 0.0 0.0 50.0 0.0 0.0 0.0 50.0" Properties=species:S:1:pos:R:3:forces:R:3 Energy=-17617.769309360632
C		2.22430339		-0.17146708		-0.32199362		-0.1541778956527649		-2.487203347946893		-2.3447087505698048
C		0.84316204		1.74353663		1.1431994		-0.270352058945491		0.10113871218834442		-0.22193073095478838
C		2.82225707		1.06352285		-0.07807404		-1.9114563286293738		-1.0203209339022672		1.1663096090004077
C		2.14387415		1.99439352		0.71545147		-0.031019999215304513		1.1807550433602994		-0.09920287722555271
C		-3.50208277		0.2512682		0.22553853		1.4630638116874852		-1.0656258277985111		0.6168094902179543
C		0.87279376		-0.48100918		0.03885444		1.4525178665889598		2.1404056054651712		-0.07445822082274482
C		0.15878284		0.59376137		0.68324833		1.8617731546483414		0.025287107739536612		0.9898462142371259
O		-0.99309874		-1.78546369		-0.4514501		0.13829238643411051		-0.01710210379403262		0.22895513895091638
O		-1.57817038		0.89493743		-1.20996049		0.4927450228195945		0.5190217481508786		-1.2209530579689767
O		0.95066036		-2.79031054		-0.81087985		0.3311448152515048		0.26022895746644775		0.3434513489240108
C		0.24078765		-1.69272745		-0.41575208		-2.408511960099579		-1.5532333752033844		-0.3877119635761286
C		-1.94961218		0.58304267		-0.12782687		-3.243883419117447		-1.309064761967903		1.6995237435418877
O		-1.14348661		0.5830659		1.00662255		-1.3825948145635216		-0.7192087114230046		-0.3018541914182767
H		0.24122993		-3.48612163		-0.93014528		0.5288683532001569		0.7092891898891798		-0.06185019959812578
H		2.65276285		-0.99851809		-1.11499679		-0.358056088833356		1.965777566954664		2.1530161977929128
H		0.300582		2.50233144		1.76127049		0.09985763434666059		-0.49035379407179286		-0.4931878181993054
H		3.81479254		1.20305256		-0.32370569		2.5719105000354836		0.6062287838052159		-1.0649947248261278
H		2.52382754		3.04217991		0.8599464		0.20164668135874259		-0.8219715894536637		0.20306248500403143
H		-3.92135076		-0.37504281		-0.6399541		0.5085827095201754		0.6228401154352766		1.0038550752868625
H		-3.73489095		-0.25704236		1.29795892		0.732989258515487		1.1204918314533407		-2.2958223100242905
H		-3.92638779		1.26028276		0.15912137		-0.6233395779278016		0.23261978365309757		0.1618455936500756
21
Lattice="50.0 0.0 0.0 0.0 50.0 0.0 0.0 0.0 50.0" Properties=species:S:1:pos:R:3:forces:R:3 Energy=-17617.625326404508
C		2.31702018		-0.32606402		-0.01094004		2.9052635843366117		-3.535732162735554		0.49025814903564585
C		0.71826902		1.8069839		-0.07422659		0.4864232973067728		4.974096672279307		0.4789965630940778
C		2.90058492		0.88395756		0.22134024		1.325980152253199		1.7451813413644397		-0.6346430728502621
C		2.09304385		1.99936669		0.05316362		-0.6156863809521005		-1.6691320190855323		0.32044594093926865
C		-3.44973588		0.98256876		-0.56563328		0.395177829978344		0.757087488171303		-0.25055091393786305
C		0.99492645		-0.54595675		-0.26674208		-1.437922588339104		0.6113780862942993		1.5129594102084765
C		0.20889212		0.59649645		-0.16717947		-4.2779989383352435		-3.192761815783651		-1.2375168241912762
O		-0.8496149		-2.06921924		-0.14467248		-1.1377033099741931		-0.4442931501237997		0.6623236204862856
O		-2.04955205		0.89553292		1.59284264		-0.5717814012838499		0.1884808850227863		-1.7046396216903825
O		1.21812077		-2.80438586		-0.35621302		3.0170560736884284		0.0980342080123729		0.23001469054758858
C		0.33810544		-1.85884141		-0.16201174		-0.28176703689933147		1.2172520064465848		-1.670710624980521
C		-2.19514888		0.78464214		0.37820978		-0.822029130741539		-0.2319664663497382		0.4734142868392102
O		-1.20265701		0.4149152		-0.47261002		1.8222302056931468		0.9638191430190106		-0.02239112002677821
H		0.71414411		-3.58134015		-0.43137494		-1.3792654931305421		-2.667119528515084		-0.13913318857714316
H		2.96236564		-1.25680258		0.06226107		-0.47463576651052075		0.782094808469078		-0.10534431698744344
H		0.06855783		2.7171512		-0.04010418		0.1598684153490784		-0.5651632275810348		-0.28022406649361703
H		3.99417338		1.08204763		0.35988183		-0.5532447247917361		-0.63955814784491		-0.00045076579938989656
H		2.54533442		2.93289943		-0.0285201		0.707778563960743		2.346248327119398		0.20172144903753716
H		-3.32438305		1.98489578		-1.11684415		-0.171183377391464		-0.8274374975812189		0.8177946781654087
H		-3.49303202		0.26438644		-1.40962921		0.6102171303904863		-0.2524822237591596		0.1697684479212367
H		-4.47229583		0.90596957		-0.14854683		0.293222843970753		0.3419732731611015		0.687907227837878
21
Lattice="50.0 0.0 0.0 0.0 50.0 0.0 0.0 0.0 50.0" Properties=species:S:1:pos:R:3:forces:R:3 Energy=-17617.852515852202
C		2.27928391		-0.44206916		-0.01142731		0.8137897222539688		-0.5203790849111679		0.19579001697867043
C		0.90514674		1.94082801		-0.42261713		-2.4162095343151697		-1.2184904553985019		0.39377441905010424
C		2.95266085		0.7363456		-0.11904613		1.182210030617171		0.9544436154837879		-1.0453190496508649
C		2.22380727		1.92566834		-0.16774346		3.1157913701001716		2.1499503115858367		0.2290090292723584
C		-3.41612091		0.32374459		-0.51993549		-1.3019537592186181		-1.5329641865833852		-1.0246918606321258
C		0.88755641		-0.46204337		0.00239383		-1.6598064737950053		-1.9758976859540855		-0.48040023113262964
C		0.18403963		0.71981848		-0.38805084		0.007420666409326555		-0.26692097325093345		0.9050448569301373
O		-0.7211223		-2.32030544		-0.36974023		-2.1513577334349474		-0.5733871066057468		-1.0856153318208739
O		-2.20245955		1.41069701		1.27119877		0.26989635662810646		-0.2587080985475845		-0.45682563233868756
O		1.09456063		-2.71173477		0.90236198		-0.10914841832297456		0.6526397148425821		-0.5478039106306539
C		0.26663768		-1.90345743		0.13623095		2.5650518253466146		1.7952637048162297		1.1314259102791988
C		-2.24048628		0.88095282		0.1832972		0.6014444236933023		0.00881096471164285		0.06972857378527225
O		-1.16861352		0.70290932		-0.67759045		0.8658895789037127		-0.2840605637284882		-0.14832498508325115
H		0.79459095		-3.62131566		0.70328427		-0.19988737833632342		-0.11496929294758526		0.1774080180503902
H		2.94778976		-1.30836834		0.03418625		-0.57903155213411		-0.6110135038715668		0.1057534823383156
H		0.33834932		2.84251228		-0.52339264		-0.5122001487690323		0.9669841709624795		-0.19700213783461598
H		4.0082081		0.7287137		-0.47936317		-0.10458774418269515		0.1254200558085259		1.0095803562973884
H		2.78453001		2.90927974		-0.01652041		-0.55521804643805		-0.9035122737810366		-0.5332528039324385
H		-3.94027385		1.05003228		-1.16933737		0.38327346825621766		0.14998704898558748		-0.3448348595140843
H		-3.34607366		-0.69987411		-1.05474949		0.7333591888327137		1.4958029018723773		0.3330292795739143
H		-4.17281391		0.10405664		0.20180315		-0.9487259449385036		-0.038999212066904966		1.3135270142806632
21
Lattice="50.0 0.0 0.0 0.0 50.0 0.0 0.0 0.0 50.0" Properties=species:S:1:pos:R:3:forces:R:3 Energy=-17617.96763168642
C		2.29035477		-0.3879135		-0.00185324		0.9512956082429882		-2.5153055050729		0.8667893621523692
C		0.64984737		1.87577005		0.59113005		1.9855656507584314		-0.04455048081811832		0.6709673606508584
C		2.86507609		0.8295322		0.29590463		-1.2151542434091547		1.2013668057603049		-0.6886654461486246
C		2.05378658		1.97180496		0.50837685		-0.2000264235931738		0.33698697860996757		0.028787921750769118
C		-3.5181398		0.39085367		0.40053223		1.983250012442423		-3.2988888279835646		-0.0038508439902933136
C		0.88472087		-0.52330167		0.10250176		1.3604424985947363		-0.3545110518484211		-0.2900310251327505
C		0.16847995		0.57125768		0.51262112		-1.0841330394488442		1.4117156427465576		0.720484184259882
O		-0.96276138		-1.95051524		-0.62601792		1.2834812574604355		0.28054709988989435		0.6552534468545818
O		-1.74676987		1.21111998		-1.01177372		-0.5889692256559778		-0.854408780709943		1.2486503177752946
O		1.21968731		-2.56125398		-0.97688041		-1.0489868825209177		0.8838125845026117		0.987856694641142
C		0.23493429		-1.71110803		-0.42840486		-0.23628987909389793		-1.3979676972416653		-1.418707140622721
C		-2.06961074		0.6531508		0.03958839		0.4605149596308422		1.1686224705250436		-1.3737459003697945
O		-1.08536621		0.35835135		0.98819053		-2.4267103822649316		-0.4018383240385511		-0.4153641776557449
H		0.63341359		-3.23894911		-1.32729841		-0.2614600530634354		-0.9840881773728226		-0.589266342332783
H		2.8985415		-1.40138686		-0.04662338		-0.9189711855696501		2.12159469511404		-0.49339047254739976
H		0.06573902		2.74433618		0.93135458		-0.2629575149438863		-0.2737957944674099		-0.1936298789794951
H		3.87798124		1.06781443		0.10873995		1.8441733367119064		-0.2244096343190582		0.189793278900499
H		2.55026603		2.95078456		0.669976		-0.13204774259289334		-0.19342105398390733		-0.13209494804621755
H		-3.66617034		-0.37264166		1.20121487		0.311330043397329		0.3308692958409263		0.00401508605774156
H		-3.93388884		1.28970138		0.69988443		-1.443553561287107		2.440811237384382		0.5514579623879714
H		-3.96050135		-0.06309358		-0.49487819		-0.36079318237316044		0.3668584660605706		-0.3253093881832222
21
Lattice="50.0 0.0 0.0 0.0 50.0 0.0 0.0 0.0 50.0" Properties=species:S:1:pos:R:3:forces:R:3 Energy=-17617.1992364984
C		1.89054848		-1.1897617		-0.34411963		0.07284289957517069		-2.245207265427636		0.31471104400306543
C		1.0165649		1.29576471		-1.39835479		1.0142143068766516		-0.35531421304174426		-2.3583341058778293
C		2.58067456		-0.71318294		-1.47440001		-2.858299506173528		2.428759757141601		0.4774071585659757
C		2.10555863		0.54386835		-1.95211813		-0.41776579366016037		0.7940247269562393		-0.7704153154260224
C		-3.06434737		1.23848298		0.56690436		1.9404567263421637		0.6551734855474803		1.4043432616538667
C		0.76261987		-0.49812677		0.21985934		2.4220026410260607		-2.0480367717605765		1.4358919825152272
C		0.34739435		0.69667268		-0.37916213		-1.3590813566018263		0.11783483879937642		1.9618040813454405
O		-0.86049857		-1.76080151		1.47676862		-0.19789775589621467		-0.4853525357004876		0.23185848001860443
O		-2.09941325		0.42373033		-1.4403372		-0.3723830467613752		-1.097704453013364		-3.123399881303609
O		0.91925954		-1.01701788		2.68785172		-1.0541215811442668		-0.9295704039248683		-0.4326346372822214
C		0.21612491		-1.20395906		1.50863137		-0.5921955486978806		1.8854869015432587		-0.4351971529200261
C		-1.99713703		1.04303557		-0.44744533		0.8128847967990677		0.5052976624829607		2.447915812375861
O		-0.77752608		1.32917642		0.13551572		0.4607839998615526		0.30193646671818813		0.4659127849477207
H		0.34268014		-1.50311005		3.38225322		0.9157479478514937		0.744612238711916		-1.1459187557806645
H		2.12620511		-2.3107129		-0.00872176		-0.4378922346348133		2.2727249079698346		-0.2561189977034958
H		0.48366107		2.14132799		-1.95111434		1.0264919413500637		-0.7032522397581765		0.6624655453786328
H		3.04778059		-1.28477687		-2.23283032		1.469955653606631		-1.1646817921916595		-0.4182099260134949
H		2.43171401		0.91134716		-2.94761197		0.34647373206625814		-0.1120489311772281		0.2760836134476353
H		-3.88805193		1.75170181		0.15202358		-2.133704745085945		-0.2744117279313721		-0.8563012154520315
H		-3.01524376		0.17505164		0.91016808		-1.326136732433343		0.38130348904396266		0.3652475156883043
H		-2.76421138		1.9412104		1.39302102		0.2676235528901149		-0.6715741409877053		-0.24711113791475234
21
Lattice="50.0 0.0 0.0 0.0 50.0 0.0 0.0 0.0 50.0" Properties=species:S:1:pos:R:3:forces:R:3 Energy=-17618.00512909853
C		2.23402987		-0.28784952		0.3014891		-0.09109274380296815		0.2734657162485777		0.2551799279991314
C		0.80710063		1.74618469		-0.85129175		2.121332545439697		2.8656140888680315		-0.001964785583948044
C		2.89089724		0.98044587		0.17526627		-0.32306383813832634		-2.1434863012262313		-0.5668278625864933
C		2.20827241		1.95241295		-0.48261514		-2.3754560585879654		0.9987259816683197		-1.6139717783893945
C		-3.55744842		0.67848612		-0.28568872		-0.24660329362604885		-2.4110338523080523		-1.1933487692515587
C		0.87871918		-0.54541816		-0.02030591		0.4108023722300917		-0.10658610837341954		0.9558232179971157
C		0.18015882		0.6208867		-0.50581131		-2.468134041731978		-3.871039336831642		0.6850408078110253
O		-0.62514375		-2.44948672		-0.51636088		0.9303545903771494		0.19439503926867163		1.0140190058834868
O		-1.78949696		1.36517259		1.19864779		-0.23805396436812445		0.27180725189061244		-0.15451085350709406
O		0.89452721		-2.65511709		1.19000211		-0.25731826304383015		-1.7578989430041283		-0.11887700973894237
C		0.26985699		-1.9992148		0.19772762		-0.45924694299301944		1.9021636934588115		-1.6824540870692577
C		-2.1279964		0.92380359		0.11216433		-0.11675929494128391		0.34635731251688345		2.3779693118899483
O		-1.22331		0.47205878		-0.76244994		1.2353789519451395		-0.25380629044504716		-1.671317199629118
H		0.59625934		-3.63754876		1.13024661		0.3129870679375457		1.774183898803853		0.09324388294121565
H		2.84777679		-1.10413804		0.64931135		0.2809670638738799		-0.7235107325891874		0.3693618977486265
H		0.1803013		2.50990211		-1.3577881		0.47974264579808723		0.026217641381535196		0.19437133369788465
H		3.97539042		1.05214269		0.28124484		0.2195957065212388		0.020889235848956998		0.48107992795402316
H		2.72333943		2.83607739		-0.8722927		-0.019576636282994588		0.38543802855276327		0.18031290177995155
H		-3.71387301		0.93762218		-1.35469191		0.165614573716957		-0.5340313853799131		-0.14989860303818267
H		-3.82145009		-0.47961055		-0.10246709		0.5719391641714301		2.1518901060474365		-0.5521129251973291
H		-4.32313397		1.25938995		0.20415595		-0.13340960449467776		0.5902449041811049		1.0988816068668472
21
Lattice="50.0 0.0 0.0 0.0 50.0 0.0 0.0 0.0 50.0" Properties=species:S:1:pos:R:3:forces:R:3 Energy=-17617.43560415878
C		2.21704706		-0.78459339		-0.03148216		0.0048820106084960955		-0.15731638981201235		-1.7593263680355296
C		0.84972399		0.91589284		-1.84172494		1.0684686450987018		-1.4043191961286425		1.7083443756012704
C		2.81337454		-0.33047871		-1.1928613		1.5365356030863544		-0.26355293100493304		0.5306216912633325
C		2.16405311		0.53232456		-2.06015021		-0.09454784360068734		-0.5218021390672615		0.7098678423578694
C		-3.18135064		1.30963201		0.38065948		-0.051197193765590295		-0.1683437996812074		0.2638159548543375
C		0.94284011		-0.37417144		0.17407858		-2.772643925565209		-0.28839832322807		3.1285181762890377
C		0.28386623		0.49376721		-0.62342976		-0.4471151414887003		2.359169971502867		-2.703452712332483
O		-0.11252117		0.13529306		2.24927413		-1.217139392129831		2.0745724585983316		2.3932970459972656
O		-2.26654392		-0.59034281		-0.62685486		1.358921742519998		-0.13972027426407385		0.7722207440384544
O		0.10817206		-2.02869545		1.64203317		0.4012667163924163		-0.6204287292389968		1.6740050822551629
C		0.18972377		-0.68821759		1.46403424		2.223511885905734		-2.229811962730267		-2.0852792519081844
C		-2.00201751		0.47734425		-0.08455605		-3.0071339296294184		-0.2151002355561392		-1.9104601290136327
O		-0.87152488		1.17334388		-0.2599467		0.6214813902793014		-0.2034907279400706		0.6431383060984949
H		0.11284759		-2.19207913		2.64620377		-0.5225432338312139		0.2615496817182764		-1.4046300424961204
H		2.54682025		-1.56685782		0.57851796		1.2800915151040835		-1.3615881821460034		1.2732916158325889
H		0.24822477		1.38648171		-2.54276241		-1.2262710248228788		1.6652242508721127		-1.5812931605499372
H		3.85774358		-0.60379598		-1.409834		0.009988787051937804		-0.05119914780396318		-0.03709366469889318
H		2.83773841		0.85138067		-2.80083455		0.3897366044407622		0.8905643013015957		-2.051720699736174
H		-3.49240279		2.02178928		-0.39129641		0.6103262480069939		0.8585968505857484		-0.21553650033391972
H		-4.05093745		0.66635212		0.3123448		-0.4417934208242398		-0.865914364337811		0.46542957182692823
H		-3.14465914		1.75438568		1.38092011		0.27517400858505175		0.3813088883605194		0.18624212269013313
21
Lattice="50.0 0.0 0.0 0.0 50.0 0.0 0.0 0.0 50.0" Properties=species:S:1:pos:R:3:forces:R:3 Energy=-17617.711570258798
C		2.28140994		-0.38123791		0.47757137		-1.2175853756774135		1.7224997381069114		-0.3776685148718121
C		1.05345556		1.72563544		-0.88355514		-1.687078473144906		0.2120081240972169		1.6050838862723342
C		3.03607548		0.76874451		0.17240197		0.35747203704810954		-0.9457191941032393		0.871824661929013
C		2.37535515		1.84077407		-0.45204621		0.4232727365935464		-0.4543331535499324		-1.1402444854560834
C		-3.476832		-0.11791543		-0.31997933		2.2704468077594115		4.8264434135977705		-1.2099117127208592
C		0.8915114		-0.40821492		0.16956514		-0.867796360401223		-0.778588492297164		0.7840203590193808
C		0.17976459		0.68980896		-0.37549492		2.086601056023324		0.10919865767798298		-2.1230674229824547
O		-1.07128276		-1.90100687		0.33998813		1.5695799346339179		-0.019180634980108257		0.49403628222964235
O		-2.1253459		1.70560096		0.93369144		0.3426463365364396		-2.7177067537759556		-1.9844490720945078
O		1.08547205		-2.72535176		0.2596101		-0.8804004735490963		-0.28165570813413876		0.592805722890849
C		0.15007015		-1.71222636		0.33200752		-0.2877169809006783		-0.11470616625405594		-0.7493143235239181
C		-2.17169895		0.78709481		0.10253006		-1.701851928841132		1.1738066885945269		0.16031589013647185
O		-1.10932168		0.49067177		-0.84758498		-0.6811848216144875		0.8676274903481548		1.807406613486037
H		0.60476025		-3.56425944		0.46051422		0.03245477760163543		0.22656781827986058		-0.20678045438496778
H		2.62433666		-1.19505326		1.08548691		0.7857033517011323		-0.7893118435111238		0.11987819729473992
H		0.67671247		2.61229806		-1.40586626		-0.5041278105623447		-0.12052380128873265		-0.2608310583956123
H		4.11446778		0.70286958		0.47854034		-0.5949232320002578		0.6496829462520141		-0.3442973961174127
H		2.86195142		2.73049324		-0.87239055		0.5706279015790913		0.04697955620387922		0.38965679739984804
H		-3.57451129		-0.90145316		0.32351479		-0.1601484084790896		-2.9629837181453698		2.0106357573944513
H		-4.39528846		0.49000364		-0.34744327		0.0030259826866185094		0.34346441012787177		0.44511765147303745
H		-3.25666838		-0.33794118		-1.34814541		0.14098309727358985		-0.9935693772463693		-0.8842173275561137
21
Lattice="50.0 0.0 0.0 0.0 50.0 0.0 0.0 0.0 50.0" Properties=species:S:1:pos:R:3:forces:R:3 Energy=-17617.735617614944
C		2.30175619		-0.22292458		0.21478332		-0.3165358073109767		-0.24973350883324272		0.009206914592466737
C		0.71819655		2.00379577		-0.51271567		-0.5910154637868381		1.4512126717999891		0.8471006257732452
C		2.85851659		1.04196822		-0.01217828		1.1994053111883534		-2.583444160109446		0.6093782822858265
C		2.13666481		2.09702989		-0.44404506		-0.1137026647054484		3.445583939375569		-0.6966817343072477
C		-3.48008237		0.7362499		0.02669764		-1.1267142609635818		-0.3167955401483846		3.2617775255172523
C		0.92137236		-0.36853967		0.17803372		-1.351891523830814		-0.7313820105317166		0.7551347867720293
C		0.11661563		0.80448074		0.00240536		0.1295938303509717		0.7908981112934166		-0.8475941233065267
O		-0.80823795		-1.81081786		1.10887352		0.1491260893940765		-0.05658200930067028		-0.07995107411102105
O		-1.7634399		-0.12170563		-1.49762261		-0.3853404294782432		-1.7949535783576258		-3.188262642430055
O		1.08997652		-2.81776053		0.32120515		0.653057056301383		2.116613594191213		-0.3828419857302445
C		0.29123177		-1.70604305		0.59872125		-0.03534608590671137		-0.4441484484400805		-0.2983156850352722
C		-2.16769416		0.37335282		-0.5084277		0.9223095058635572		0.9529694992196868		1.1657193865676678
O		-1.22314186		0.87043806		0.35302161		1.0651146410757488		0.6014615472400963		1.060767522760802
H		0.69074168		-3.66192726		0.55756835		-0.8399923483932701		-0.2509606449314221		0.45142539018487415
H		2.83797811		-1.13660034		0.52459094		0.4323043019530768		0.36880360841666476		-0.1991670066635362
H		0.11628777		3.02272737		-0.69724133		0.8978632516891157		-2.3984292763616173		0.31909302647634963
H		3.90131297		1.08597424		0.21741839		1.2698410925984271		0.4997651627845395		-0.09224094703529499
H		2.77393767		3.1045502		-0.59936509		-1.787181030774991		-1.8671578673392961		0.05283380374701651
H		-3.94209216		-0.07184544		0.70979137		0.5827264844310711		0.3142021198510506		-1.1385584074505852
H		-3.23311694		1.47362111		0.86061371		-0.6167061832945029		-0.058035351051543727		-1.0765429887658249
H		-4.2559847		1.06163145		-0.66262943		-0.13691576640040448		0.2101121412328198		-0.5322805155757347
21
Lattice="50.0 0.0 0.0 0.0 50.0 0.0 0.0 0.0 50.0" Properties=species:S:1:pos:R:3:forces:R:3 Energy=-17617.430804918135
C		1.96348182		-1.19721318		-0.18146006		3.2316670283204068		-1.858354924469395		-1.999413303642404
C		1.39369167		1.46801683		-0.84399195		0.5791826815756348		-0.6047372354619462		0.4708828815491845
C		2.9944874		-0.3108382		-0.60786041		1.474818329519648		-2.0708102148216305		-0.13804304085331637
C		2.74299544		1.00171506		-0.88707197		-1.4587681668570458		2.2482185414043956		-0.5824435602435004
C		-2.81137772		2.06007449		0.26078066		-1.977444924390983		3.3651519147145033		2.2469224483204777
C		0.76703613		-0.69041724		0.08535316		-5.372908499410615		0.07702690710804297		1.6080575727214463
C		0.47127101		0.59435966		-0.2810408		-0.3543920611959242		2.8120378019613765		1.162674737672382
O		-0.80939604		-1.17743461		1.93781282		-1.2132603688493178		0.8974733696116604		1.154200073249127
O		-2.06044349		0.24849105		-1.07827997		-0.2314343508475608		-0.030056041232716903		0.1364413978743525
O		-0.48808952		-2.66160604		0.29383175		-0.17848371617467004		-0.5544104115252942		-1.0470004482486803
C		-0.39391284		-1.45716933		0.8556159		3.5672595948630623		-0.4761256693477923		-1.2957804377780118
C		-1.86947319		1.10234498		-0.23488821		1.95891225881974		-1.1215142048988653		-0.7431761233519615
O		-0.60314498		1.32390099		0.29724948		-0.734400022798656		-0.6673860711118998		-0.6449597783944097
H		-1.00099055		-3.2356739		0.87858509		-0.5252699401144044		-0.36411504760708546		0.4926268034980341
H		2.01408566		-2.29827985		-0.37862681		0.5541149917765495		0.39908122731645573		0.9192471163567281
H		0.93930015		2.46236853		-0.98938754		0.8726901466620192		0.21210495184080017		-0.26097874255895337
H		4.04817011		-0.68719528		-0.80295012		-0.9936807574336242		0.1227069249498207		0.3272653291724298
H		3.51544801		1.73915014		-1.13401515		0.3330451689912097		-0.16385485931803828		-0.22045018693288174
H		-3.81338568		1.98811413		-0.17174382		-0.3658211802169369		-0.6784072589115391		-0.01590216996688646
H		-2.89623254		2.24106075		1.40224475		0.1968047285368909		-1.0172537107215682		-1.158076062627956
H		-2.5851461		3.14003451		0.03044363		0.6373690592245784		-0.5267760409013461		-0.41209455723726357
21
Lattice="50.0 0.0 0.0 0.0 50.0 0.0 0.0 0.0 50.0" Properties=species:S:1:pos:R:3:forces:R:3 Energy=-17617.897012463036
C		2.3113457		-0.43108126		-0.14982652		-1.7903862707712914		2.8368118203618407		0.08094069170276855
C		0.59703657		1.77999458		0.06564082		0.8617529310903518		-0.854423950218364		0.4806095703488419
C		2.82220759		0.90867003		-0.30982593		-0.144405235529282		-0.8159282629869175		0.5005638502584301
C		1.96679837		2.0664309		-0.21685064		-1.40202618352011		-4.639671746508583		0.41622359458538255
C		-3.54821567		0.72544022		0.08187816		-2.077279521653668		-0.22809500211240455		2.0780396425807255
C		0.87980076		-0.67045999		0.09089505		3.897700853456199		0.4513294880384149		0.1200069067170389
C		0.07228611		0.42471434		0.22038324		-0.4845955515192398		3.0905720880609993		-0.0030697428617589154