15
Lattice="50.0 0.0 0.0 0.0 50.0 0.0 0.0 0.0 50.0" Properties=species:S:1:pos:R:3:forces:R:3 dihedral_angle=8.02164373962562 config_type=300K_MD energy=-9391.45554428476 pbc="F F F"
C        0.07874433       1.40230941       0.08237721       1.47339228       1.13796366       0.06391102
C        0.67897464       0.14947662      -0.34019955      -0.90563015       1.18186533       0.43014326
C        0.13121012      -1.02853034       0.04291107      -0.42567980      -1.37378044      -0.08569541
O       -1.02706144      -1.16930643       0.67151293      -0.16420406       0.16330205      -0.18578902
C        0.81554328      -2.31610607      -0.26094760      -0.25263096       0.37225762      -0.56146757
O       -1.04931184       1.48990357       0.62698038       0.71614809      -0.18312798      -0.57271821
C        1.11968960       2.64889162       0.01947927      -1.82897626      -2.01276253       0.48501801
H        1.63353652       0.07378903      -0.82198539       0.84424501       0.35736886      -0.47718354
H        1.72022506      -2.37021081       0.31974287       0.80544290      -0.35747400       1.00302299
H        1.24260703      -2.23867576      -1.29111870      -0.61965312      -0.54052806       0.04472844
H        0.11608014      -3.13974737      -0.02605702       0.32583843      -0.23803930      -0.40794187
H       -1.41330927      -0.24658153       0.67253100      -0.12695427       0.53616913       0.42231377
H        0.63538767       3.55632976      -0.28851981      -0.66517314       1.01823701      -0.04057291
H        1.96158501       2.48124808      -0.63845384       0.60497034      -0.42062290      -0.47644160
H        1.46821198       2.70628428       1.05684396       0.21886472       0.35917155       0.35867265
15
Lattice="50.0 0.0 0.0 0.0 50.0 0.0 0.0 0.0 50.0" Properties=species:S:1:pos:R:3:forces:R:3 dihedral_angle=14.971971479530605 config_type=300K_MD energy=-9391.252143832162 pbc="F F F"
C        0.43628625       0.93941698      -0.69069848       1.74742274       0.91201586      -2.44525185
C        0.64332183       0.48545888       0.64281413       1.40471818       3.18387086      -0.89214308
C       -0.18738903      -0.41491502       1.12335996      -1.95580405      -4.07425579       0.59832178
O       -1.05325470      -1.16617227       0.36897474      -0.28130552       1.41924195       0.49858637
C       -0.15323088      -0.98564685       2.47152825       0.05007116       0.96836011       1.68220892
O       -0.43730501       0.52634677      -1.46040587      -1.20513255      -0.30799675      -0.11997677
C        1.49700597       1.91973430      -1.32381413      -1.18529715       0.15870684       1.91825219
H        1.39610013       1.09124643       1.18155776      -0.28562299      -0.61193560       0.49242721
H       -0.07315265      -2.06461646       2.43719277       0.16882077      -0.84957050      -0.07816133
H       -1.10313247      -0.77271006       3.00676739      -0.17074894      -0.04729815      -0.15296069
H        0.62838059      -0.54670993       3.12431532       0.16093184      -0.14440756      -0.20166746
H       -1.33793537      -0.59251944      -0.40750718       0.83597997      -0.18555958      -0.28217936
H        0.95899566       2.90138274      -1.51878526       0.68566535      -0.47074239       0.42244408
H        1.77546853       1.55425463      -2.30164455       0.34515829      -0.47987954      -0.70340921
H        2.36365879       1.96408580      -0.60375963      -0.31485709       0.52945023      -0.73649082
15
Lattice="50.0 0.0 0.0 0.0 50.0 0.0 0.0 0.0 50.0" Properties=species:S:1:pos:R:3:forces:R:3 dihedral_angle=340.20754159106156 config_type=300K_MD energy=-9391.049688086126 pbc="F F F"
C        0.96927642       0.01523281      -0.75434219      -1.12333596       1.28588291       0.05713289
C        0.63619497       0.16092228       0.63745603       0.54123770      -1.74106611      -0.90727510
C       -0.66571815       0.14010444       1.06738989       0.14055516       1.91967330       1.31832147
O       -1.70691282       0.35600678       0.32564347      -1.41467499      -0.55374127      -1.25891072
C       -0.97964678       0.38306280       2.49801982      -0.65870773      -1.35513640       1.48727082
O       -0.01936502      -0.00910048      -1.55352885       1.68441419      -0.14770717      -0.62033994
C        2.49677091       0.08385691      -1.10693855      -1.64527675      -2.44241170       2.46412491
H        1.39949487      -0.20098021       1.29049096       0.86258604       0.24589421       1.28058457
H       -0.43768528       1.25236562       2.84212704       0.34262342       0.95137632       0.18095495
H       -0.52683979      -0.43474695       3.14547109      -0.69793586       0.36078472      -0.35033125
H       -2.09485917       0.55401312       2.69408077       1.16009213      -0.46705676      -0.22497638
H       -1.42337218       0.18253882      -0.62344015       0.56957470       0.12787860      -0.31261879
H        2.93563408      -0.92617741      -0.72324677      -0.32384934       1.35070287      -0.74282349
H        3.01939775       0.89667900      -0.60667003       0.05305204       0.44949217       0.48954694
H        2.56834860       0.19911705      -2.13232292       0.50964526       0.01543430      -2.86066086
15
Lattice="50.0 0.0 0.0 0.0 50.0 0.0 0.0 0.0 50.0" Properties=species:S:1:pos:R:3:forces:R:3 dihedral_angle=343.881969844574 config_type=300K_MD energy=-9390.936258707372 pbc="F F F"
C        0.58462588      -0.56007432      -0.70958103      -0.53109362      -2.37383112       1.59519043
C        0.14799979      -0.39802275       0.64608030      -0.40288117       1.70422271      -0.76446841
C       -0.39884945       0.82413710       1.04144903       2.06975735      -2.09325222      -1.77647554
O       -0.29394978       1.94595116       0.38881275      -1.59999757       1.99939837       1.90597665
C       -0.90931436       0.81750305       2.36823194      -0.02532905       1.18529971       1.77782790
O        0.50804739       0.34338541      -1.51012391       0.50466005       2.21672492      -2.29549690
C        0.88768553      -2.00197738      -1.09895847      -1.07116928       1.96305926      -1.22242410
H        0.05841637      -1.23369480       1.30819813      -0.00509848      -0.80919387       0.63804757
H       -1.75510454       0.18588839       2.47473024      -1.24782103      -1.08070869       0.27476574
H       -1.13016983       1.77392270       2.80236777      -0.38518061       1.20327458       0.17256412
H       -0.06752214       0.44137899       2.92623901       0.37594645      -0.59631108       1.07260203
H        0.06151169       1.89310066      -0.48630752       0.95224873      -1.23448715      -2.03867592
H        1.66978675      -2.40166286      -0.55026332       2.05734999      -1.10000713       1.69836429
H        1.16928595      -2.00732120      -2.14046924       0.00775085      -0.25044139      -0.98656768
H       -0.01813155      -2.55304286      -0.89514198      -0.69914260      -0.73374688      -0.05123019
15
Lattice="50.0 0.0 0.0 0.0 50.0 0.0 0.0 0.0 50.0" Properties=species:S:1:pos:R:3:forces:R:3 dihedral_angle=2.884947183432749 config_type=300K_MD energy=-9391.516338276799 pbc="F F F"
C        0.14586349      -1.08808335       0.34413747       0.20671791       0.03538908      -1.87254533
C       -0.69057765       0.02024536      -0.14257483       0.61581177      -0.62178980       1.20370239
C       -0.25004248       1.33116518      -0.01241616       0.71222375       0.61298019      -0.42713914
O        0.94891507       1.70818497       0.49220122      -0.46036966      -1.50923558      -0.45605955
C       -1.04434161       2.52167526      -0.48260492       0.32232700      -0.35806398       2.23000132
O        1.26896418      -0.84251954       0.81088853       0.94091889       0.37715804       0.87943546
C       -0.11816607      -2.53987596      -0.08128854       0.10793487      -0.62108942       1.55594112
H       -1.69000975      -0.23096922      -0.47945190      -0.48323879       0.23522037      -0.40776635
H       -1.13229500       2.69863338      -1.52298558       0.00213139      -0.07725061      -1.79484081
H       -0.60850471       3.40842550      -0.01146284       0.26645239       0.38157437       0.02981797
H       -2.02827276       2.42134960      -0.03866321      -0.98229194      -0.00432400       0.01475002
H        1.43748717       0.80757646       0.67227993      -0.57749233       0.31470767       0.21462153
H       -0.65199460      -2.61140850      -1.00899627      -0.48917140       0.10506557      -1.19203766
H       -0.73029798      -3.16632778       0.61954869      -0.00870718       0.54264721       0.13683267
H        0.83662599      -3.12316323      -0.13347321      -0.17324666       0.58701090      -0.11471362
15
Lattice="50.0 0.0 0.0 0.0 50.0 0.0 0.0 0.0 50.0" Properties=species:S:1:pos:R:3:forces:R:3 dihedral_angle=7.14667629065292 config_type=300K_MD energy=-9391.521561328873 pbc="F F F"
C       -0.05168067      -0.87089425       0.70252464      -0.70234895      -2.03551995       0.30645669
C        0.00092089      -0.22002760      -0.52107363       0.22565638       0.31778158      -0.52278669
C        0.24719298       1.11350391      -0.58392388       0.32109265       0.44343994       1.19573511
O        0.58590132       1.80821085       0.51707266      -0.20668799       0.16111510      -0.97452163
C        0.09762770       1.80527611      -1.87485920       1.24178868      -1.84490816      -0.87601156
O        0.34385767      -0.38359598       1.76211465       0.70378312       1.25305171       1.74000545
C       -0.74461707      -2.21233159       0.76116993       0.67494785       0.01786859       1.47833222
H       -0.26276948      -0.74486868      -1.40385074      -0.45885288      -0.63550856      -1.17328123
H       -0.58770813       2.57932047      -1.77926735      -1.58309895       2.32310203       0.17032589
H       -0.29473074       1.10743828      -2.67840037       0.50091833       0.47703822       0.67252867
H        1.09164573       2.18480102      -2.14458659       0.19328377       0.42357595      -0.39847850
H        0.60803842       1.13487216       1.29785046      -0.03144660      -0.33280013      -0.41642753
H       -0.03839146      -3.06557037       0.69093253      -0.01816426       0.04175754      -0.00850112
H       -1.52349509      -2.30888773       0.04136223      -0.93474530      -0.22861460      -1.20403807
H       -1.21483048      -2.21054458       1.76539836       0.07387415      -0.38137927       0.01066230
15
Lattice="50.0 0.0 0.0 0.0 50.0 0.0 0.0 0.0 50.0" Properties=species:S:1:pos:R:3:forces:R:3 dihedral_angle=0.010734687019965002 config_type=300K_MD energy=-9391.488689810552 pbc="F F F"
C       -0.14086059      -0.88994243       0.68892069       1.83605333      -2.55024493       0.24965664
C        0.77772403      -0.15605472      -0.13271406      -0.02310778       0.53030425      -0.19727244
C        0.43456045       1.14581005      -0.50181370       1.76025443      -0.73035108       0.55401823
O       -0.68080031       1.66585710      -0.10923384      -1.88090960       0.41825533       0.72535074
C        1.27492240       2.13501204      -1.26479370       0.31296165      -2.20249146       1.17581519
O       -1.25664045      -0.55263960       1.05613326      -2.25174007       2.09749890       0.27678223
C        0.29912573      -2.29311737       1.15223233       0.55546419       2.16919191      -0.14142534
H        1.74181717      -0.63346933      -0.36185750      -0.03914229       0.29112109      -0.18057441
H        0.57094469       2.40161707      -1.98445846      -1.22985911       1.30226016      -2.17605283
H        2.13626166       1.64287760      -1.71297313       0.52867876       0.01551365      -0.19303587
H        1.51761089       2.97627504      -0.63572863       0.30882906       0.76963445       0.47437408
H       -1.17901687       0.95326255       0.46562735       0.17009780      -0.08820159      -0.29449537
H        1.33892037      -2.24574048       1.46623458       0.64087148      -0.39113990       0.14368201
H        0.14547114      -2.93571209       0.33470937       0.19757513      -1.42262671      -1.82857730
H       -0.34660596      -2.67474570       1.90319912      -0.88602696      -0.20872408       1.41175443
15
Lattice="50.0 0.0 0.0 0.0 50.0 0.0 0.0 0.0 50.0" Properties=species:S:1:pos:R:3:forces:R:3 dihedral_angle=11.42088240672694 config_type=300K_MD energy=-9391.438058880192 pbc="F F F"
C       -0.36521085      -0.96995969      -0.10026668      -0.23960311      -0.48257244       1.84907838
C        0.52619476      -0.11375789       0.65171098       0.25746484      -1.77839465      -0.49075812
C        0.56114740       1.20534652       0.39985831       0.98183410       1.17353539       1.42442352
O       -0.32441365       1.78771074      -0.34203465       0.44678111       2.60452775      -0.42344441
C        1.52837139       2.07965510       1.14073434       0.56190195      -1.24042692       0.30577994
O       -1.37207557      -0.50831329      -0.68550440       0.41610787      -0.47408528      -0.48899447
C        0.03531469      -2.45723422       0.01273598      -0.49873699       1.54965843      -2.04899396
H        1.30308138      -0.54512060       1.28181944       0.20879960      -0.19026032       0.14120693
H        1.35841763       3.10417355       0.94860378      -0.41990458       1.80803007      -0.34851649
H        2.59943645       1.87679182       0.90936709      -0.24122279      -0.18326035      -0.00268181
H        1.36958665       1.88421995       2.22180711       0.17149036       0.11241047      -0.02256545
H       -0.92861375       1.08152019      -0.59073273      -1.70855568      -1.66561921      -0.89075229
H       -0.76092826      -3.14018793      -0.22408367      -0.90408682      -0.56091607      -0.37580415
H        0.46129764      -2.72946538       0.95194939       0.74598117      -0.08576178       1.15935707
H        0.78313701      -2.49069624      -0.81046554       0.22174897      -0.58686510       0.21266533
15
Lattice="50.0 0.0 0.0 0.0 50.0 0.0 0.0 0.0 50.0" Properties=species:S:1:pos:R:3:forces:R:3 dihedral_angle=354.5016935110309 config_type=300K_MD energy=-9391.23261874485 pbc="F F F"
C        0.18900566      -1.08149733       0.16092641       0.01809587       0.34184001      -0.62006416
C        0.39201765       0.20395562       0.83241678       0.08305130      -3.10966004      -1.81977919
C        0.10212663       1.32981423       0.22338531      -1.41638090       3.08682658      -0.71869383
O       -0.27785628       1.43500677      -1.01727296      -0.53819353       0.75781386      -1.53464612
C        0.03528175       2.64717836       0.88262753      -0.22268433       0.24301698       0.36415300
O       -0.02682323      -1.22628981      -1.07975807       0.03054290       0.44251161       1.53443424
C        0.15422421      -2.19669568       1.16580516      -1.09630113       1.26780537      -0.27492174
H        0.70506591       0.23658724       1.80933533       0.70384768      -0.08886832       2.89621347
H        0.72015464       3.27030748       0.30691917       0.52020613       0.70556753       0.05943999
H        0.36215336       2.47065590       1.91162211       0.06332823       0.68363230       0.48835519
H       -0.97270214       3.15921122       0.80801277       0.56670161      -0.64163913       0.14163972
H       -0.32086793       0.53824323      -1.38787316       0.18923523      -1.44084694      -0.64264126
H        1.00664851      -2.11709094       1.81321991       0.80106803      -0.23686415       0.80885421
H        0.00997203      -3.12052175       0.70305059       0.26482807      -2.28556772      -1.11820713
H       -0.78524979      -2.07425430       1.73532042       0.03265485       0.27443207       0.43586361
15
Lattice="50.0 0.0 0.0 0.0 50.0 0.0 0.0 0.0 50.0" Properties=species:S:1:pos:R:3:forces:R:3 dihedral_angle=11.058328536385712 config_type=300K_MD energy=-9391.407245504606 pbc="F F F"
C        0.42020910      -0.67104494       0.96597421       0.77461202      -0.55946094      -0.33777160
C       -0.25421225       0.56491194       0.71856848       0.42931667      -0.65461925       1.14664528
C       -0.39825739       1.06353894      -0.51076278      -0.57541175      -0.37774147      -3.66226559
O       -0.09164568       0.26708502      -1.54648358      -0.09562772       1.43597424      -0.34845586
C       -0.94172247       2.38006081      -0.93350409       0.00831467       0.86197628      -0.50276742
O        0.82047432      -1.41947573       0.04595369       0.03765080      -0.17875674      -0.25972892
C        0.78695258      -0.92128746       2.39220157      -0.02671264      -1.73640383       0.21919233
H       -0.44632385       1.17048258       1.54697327      -0.55816490       1.30323326       1.71930954
H       -0.65905166       3.14691328      -0.24397752       0.71168224       0.92361413       1.15901699
H       -2.02760016       2.51164588      -0.88054435      -0.65191507      -0.61790629      -0.23699383
H       -0.60099890       2.78939033      -1.92309148      -0.06999378      -0.83977288       0.29298422
H        0.41164601      -0.47637643      -1.10771358       0.20446704      -1.34579402       0.09637106
H        1.51316985      -0.16169422       2.63388454       0.49921274       0.89545953       0.61989043
H        1.29291889      -1.91889554       2.63277980      -0.74917441       0.81610709      -0.57581258
H       -0.15054291      -0.79457504       2.95182739       0.06174409       0.07409089       0.67038595
15
Lattice="50.0 0.0 0.0 0.0 50.0 0.0 0.0 0.0 50.0" Properties=species:S:1:pos:R:3:forces:R:3 dihedral_angle=7.605006178813284 config_type=300K_MD energy=-9391.295022613482 pbc="F F F"
C        0.71707595      -0.09940070       1.14457476       1.12645479      -0.74284267       0.45990854
C       -0.43725163       0.52011743       0.59484032      -0.27840123       0.19910955       0.21959148
C       -0.70859090       0.43137438      -0.72356023      -0.24520684       1.37353897      -2.19388131
O       -0.00209858      -0.34885052      -1.51568179      -0.33654902       0.22898426      -1.60266485
C       -1.73768441       1.30644139      -1.46638957       0.24799793      -2.54755353       0.81537096
O        1.51209088      -0.85666007       0.52561570      -0.50534128       0.51760245      -0.09576739
C        0.99159089       0.31282608       2.56867037      -2.38692289       0.32468140      -1.19655640
H       -1.02212421       1.18953645       1.20150601      -0.40544196       0.48616015       0.48111617
H       -2.30138934       0.64582332      -2.12120481      -0.44268554      -0.57056516      -0.46127612
H       -1.49064898       2.12264524      -2.10394009       1.43691933       1.06855032      -0.72337198
H       -2.43153606       1.68947872      -0.76841368      -1.25130160       0.67689726       1.34682186
H        0.84874169      -0.59684326      -1.08296996       0.34629063      -0.65160462       1.09937299
H        1.25084047       1.35817246       2.51682765       0.54517509       0.95083220       0.34712401
H        1.68934659      -0.31301216       3.00252972       2.18976149      -1.41008996       1.23999242
H        0.03395421       0.23674309       3.11367128      -0.04074892       0.09629938       0.26421961
15
Lattice="50.0 0.0 0.0 0.0 50.0 0.0 0.0 0.0 50.0" Properties=species:S:1:pos:R:3:forces:R:3 dihedral_angle=348.8372110094223 config_type=300K_MD energy=-9391.594503882163 pbc="F F F"
C        0.36824372       1.16463181       0.84868572       0.15270064      -0.46052165      -0.36117759
C       -0.67091033       0.40695746       0.20381694      -0.84290500       0.50330052       1.03809983
C       -0.40590054      -0.67942955      -0.57208332      -1.07980140      -1.28996739      -0.22142772
O        0.81963312      -0.96476367      -0.94835429       0.36382019      -0.36487044      -0.17043076
C       -1.37851175      -1.71777494      -1.07281791      -0.41184717       0.92247377      -1.19597906
O        1.58553760       0.91018797       0.69803307       0.08715440      -0.03067844      -0.37268390
C       -0.10295124       2.17628691       1.82960061       0.09533188      -0.59106288       1.10730159
H       -1.64908012       0.57343235       0.67884073      -0.30369873      -0.18347320      -0.59939598
H       -1.02569499      -2.73050083      -0.81985064      -0.17832362      -0.13024128       0.34203257
H       -1.22241694      -1.65431161      -2.17616258      -0.10294396      -0.24656052      -0.04740737
H       -2.48467134      -1.53714947      -0.95276186       0.80455997      -0.11178020       0.49683152
H        1.33760416      -0.33304146      -0.37908991       1.25226172       0.70465987       0.27689669
H       -0.66276659       2.99976834       1.42874063      -0.78355844       0.73250164      -0.76865100
H        0.75360017       2.60131157       2.32693262       0.79362332       0.32574628       0.60246218
H       -0.75325295       1.66570839       2.58284582       0.15362622       0.22047393      -0.12647098
15
Lattice="50.0 0.0 0.0 0.0 50.0 0.0 0.0 0.0 50.0" Properties=species:S:1:pos:R:3:forces:R:3 dihedral_angle=2.931748449114979 config_type=300K_MD energy=-9391.325119699564 pbc="F F F"
C       -0.46639490       1.23288133       0.31726957       0.22626514       2.06488770      -0.19219402
C       -0.59856568      -0.16241781       0.41038425       0.77616193      -1.45898566       0.20367349
C        0.44563189      -1.01116401       0.10735596       2.00816570       2.94421165      -0.19580157
O        1.63409055      -0.40291361      -0.22830899      -0.43066180      -3.54780259      -0.02115075
C        0.27894806      -2.47289682       0.06100409       2.18710861      -0.45759016      -2.32737531
O        0.60987124       1.85160371       0.10024777       0.51107893      -0.49671901      -0.03550220
C       -1.70254047       2.06140479       0.29678426      -0.53654691      -0.92369319      -0.53151236
H       -1.47224216      -0.67678082       0.73585376      -1.43832934      -0.07956416       0.24489250
H        1.16893123      -3.09471157       0.29955925       0.15663229       0.45913261       0.19129973
H        0.07559278      -2.76383911      -1.01335870      -0.06163765       0.14526616       0.47887117
H       -0.51767660      -2.81799991       0.64448250      -1.83771301      -0.51185693       1.25010811
H        1.58596035       0.58689269      -0.16603677      -1.00819793       0.93351367       0.35003340
H       -2.57516188       1.48054358       0.59248248      -0.68648295      -0.19227096      -0.26693935
H       -1.75468030       2.50132977      -0.70402297      -0.43162657      -0.32569192      -0.77675303
H       -1.71821858       2.96250162       0.84573022       0.56578356       1.44716280       1.62835020
15
Lattice="50.0 0.0 0.0 0.0 50.0 0.0 0.0 0.0 50.0" Properties=species:S:1:pos:R:3:forces:R:3 dihedral_angle=5.321245685452353 config_type=300K_MD energy=-9391.431791427121 pbc="F F F"
C       -1.04413909      -0.05323314      -0.34623428      -0.83001407      -0.52246843      -0.98903600
C        0.04978933      -0.57535981       0.40534753       2.42274233       2.65829220      -0.09099351
C        1.20325251       0.20887524       0.67025782      -2.71704075       1.16073347      -0.80880140
O        1.19837304       1.52316414       0.28102792       1.81776859      -1.42820216       1.26268501
C        2.32729258      -0.24402497       1.52988813       0.08779732       1.50479175       1.51585955
O       -1.12151424       1.04806804      -0.92718878       1.00895510       1.03091304       0.56322942
C       -2.20288520      -0.97876048      -0.58437145       0.21930828       0.67827364      -1.30787661
H        0.11796238      -1.59010603       0.65531480      -0.24972570      -1.95254027       0.65767092
H        2.83421052      -1.12801259       1.14409112       0.44006893      -0.31064650      -0.23322588
H        1.95183453      -0.48371056       2.57329742      -0.02790794      -0.15083634      -0.77062031
H        3.00154025       0.63885405       1.75542583      -0.08092055      -0.77433825      -0.63417091
H        0.39563384       1.73754428      -0.24266427      -1.10976074      -0.48693509      -0.58543015
H       -3.01695670      -0.32346236      -0.93225961      -0.32456899      -0.13032036       0.05139263
H       -2.45573337      -1.49951392       0.31323509      -0.46151501      -1.07983286       0.87260445
H       -1.92426201      -1.62730003      -1.45377813      -0.19518679      -0.19688382       0.49671278
15
Lattice="50.0 0.0 0.0 0.0 50.0 0.0 0.0 0.0 50.0" Properties=species:S:1:pos:R:3:forces:R:3 dihedral_angle=8.107719740051037 config_type=300K_MD energy=-9391.461687285413 pbc="F F F"
C        0.20695514      -1.05436599       0.36866242      -0.36136648       0.44311115       2.17171718
C       -0.08187219       0.28224897       0.89970847       0.07630797       0.03557754      -0.54415167
C       -0.12818177       1.38210678       0.05872100      -0.17670222       0.19058067       1.00907054
O       -0.07202049       1.22331645      -1.24056803      -0.03190106      -0.27352657      -0.96740072
C       -0.32804676       2.83027249       0.49933433      -1.42971904      -2.54391870       1.28303728
O        0.36218141      -1.32640077      -0.81230639      -0.13118132       0.34185203      -2.40142511
C        0.39666526      -2.13112950       1.41800402       1.75934757       0.68691528      -1.81591130
H       -0.21653807       0.43310180       1.96784487       0.07125860      -0.02729266       0.39632696
H       -0.37793361       2.90358601       1.62297534      -0.57021950      -0.17446979      -0.63649382
H       -1.25027002       3.11451852      -0.04232039       0.11290911       0.70679295       0.24714812
H        0.52288293       3.39849898       0.28944947       1.75859602       1.48303477      -1.18745636
H       -0.04720512       0.20954748      -1.38423008       0.45105319       0.08546046      -0.09274973
H        0.84238177      -3.00570268       0.92610930      -0.19347203      -0.36095111      -0.09149819
H       -0.54737944      -2.33194948       1.84723047      -1.30803146      -0.40812058       1.38622895
H        1.19292745      -1.67326740       2.00707785      -0.02687935      -0.18504544       1.24355787
15
Lattice="50.0 0.0 0.0 0.0 50.0 0.0 0.0 0.0 50.0" Properties=species:S:1:pos:R:3:forces:R:3 dihedral_angle=0.17058248800386552 config_type=300K_MD energy=-9391.508332259158 pbc="F F F"
C        1.06940111      -0.40154055       0.46670419      -0.07977359      -0.63937429      -0.59165225
C       -0.22206094      -0.50931002      -0.12913246      -0.40189544       2.22235418       0.06227143
C       -1.00377745       0.64832396      -0.26449739       0.78838264      -1.21007034       0.96149149
O       -0.53529361       1.81250902       0.15513083      -2.21492354       0.33484508      -0.81948707
C       -2.36327476       0.50899860      -0.82171149      -0.32728164       0.35162643      -0.13426859
O        1.62837335       0.66085396       0.81692072      -0.29048247       0.50385434       0.26865845
C        1.74315926      -1.71069544       0.64041168      -0.34164664      -0.02982926       0.31602972
H       -0.57055368      -1.44909964      -0.50209250      -0.44205402      -0.86809262      -0.19839930
H       -3.14337709       1.17895671      -0.45192722       0.10740352       1.03878945      -0.22462920
H       -2.81428455      -0.43760093      -0.56932310       0.11112612      -1.21800003       0.27860523
H       -2.24157358       0.47226135      -1.90690785      -0.42431226       0.44645283      -0.67338816
H        0.33977946       1.59674029       0.53868303       1.92846462      -0.16802237       0.53778711
H        1.36439215      -2.49218906      -0.00058193      -0.31270948      -0.52180248      -0.74421722
H        1.53932070      -2.06056873       1.64653418       0.14972567      -0.22192857       0.95498658
H        2.78293849      -1.56862252       0.48709800       1.74997651      -0.02080234       0.00621178
15
Lattice="50.0 0.0 0.0 0.0 50.0 0.0 0.0 0.0 50.0" Properties=species:S:1:pos:R:3:forces:R:3 dihedral_angle=4.482698852126776 config_type=300K_MD energy=-9391.379562713919 pbc="F F F"
C        1.29492853      -0.09932598       0.29740928      -0.66901330       0.16636534       0.21291025
C       -0.07333294      -0.49261644      -0.09091196       1.55683231      -2.23264744       0.15632157
C       -1.20672536       0.21573004      -0.01355206       0.73116479       3.31233919       0.39618918
O       -1.09088385       1.52368875       0.40659366      -2.95369966      -1.02117490      -0.76988002
C       -2.52966273      -0.12826250      -0.57025206      -0.22610809       1.16735669       0.81272733
O        1.53972989       0.97982898       0.86062765      -0.24529356       0.50881259      -0.17160041
C        2.42725775      -1.04949527      -0.00134774       0.69938260       0.69527770       1.49965580
H       -0.21942251      -1.54823924      -0.31539389       0.16058466      -0.45768523      -0.53236478
H       -3.30565913      -0.10370806       0.23278649      -0.00031861      -0.28299010      -0.43322275
H       -2.50957532      -0.97573084      -1.22011643      -0.06929596      -1.54550155      -0.14326948
H       -2.74096042       0.67824270      -1.28036989      -0.37795556       0.64753476      -0.05425817
H       -0.17305594       1.72814729       0.55898930       2.07009653      -0.03928653       0.64686921
H        3.38744827      -0.48301916       0.03124177      -0.29368358      -0.07034467      -0.29039040
H        2.28658280      -1.58646203      -0.90603936      -0.11014705      -0.74728946      -1.49641954
H        2.54748259      -1.80558339       0.79998551      -0.27254554      -0.10076639       0.16673221
15