15
Lattice="50.0 0.0 0.0 0.0 50.0 0.0 0.0 0.0 50.0" Properties=species:S:1:pos:R:3:forces:R:3 Energy=-7373.742978298219
C		2.42152141		-0.110257		0.10136288		1.0321243541158147		-0.6319209431306292		0.1741783525744284
C		0.9153856		-0.19090616		0.11455356		2.0723056198195837		1.0717246900926978		-1.9414744718020684
C		0.16801892		0.17790554		1.1786424		-0.058919707681467		-0.05405955144950989		4.20173472325738
C		-1.2176848		0.28803095		1.13222025		-0.7973789880895046		1.108391500251238		-0.018807927871509353
C		-1.82518782		0.20154404		-0.13656473		-1.3952452075675952		-1.2460243987344957		1.1468093344801433
C		-1.09563799		-0.18518625		-1.26231568		0.6563733679525641		0.9908697189680246		0.5770681035237855
C		0.29144398		-0.21956162		-1.13213004		1.3432782769492706		-0.6916063767439596		-2.3748064950951644
H		2.85083715		-0.67760099		-0.76437171		-0.12351512550526345		0.09524132153481604		0.3915659443122311
H		2.81348203		0.90818699		0.00513828		-0.27792801998340044		0.7725862520583109		-0.441331445015237
H		2.99739597		-0.38692631		1.0196042		-0.6257578546804493		-0.5752384036978795		-0.0130563187650116
H		0.72123164		0.32834375		2.17023344		-0.7027087599801991		-0.16263908749565917		-0.8940677378380127
H		-1.85029974		0.59022464		2.0292809		0.7777439363435729		-0.38327382821065487		-0.8202752270356767
H		-2.93578979		0.216264		-0.09758214		0.22475735030530897		0.18687677378482515		-0.5482060825810335
H		-1.52444154		-0.30631923		-2.23480647		-0.6757559887939548		-0.023166461884318798		-0.9408276704131909
H		1.00462329		-0.21303999		-2.07636677		-1.4493733560484061		-0.4577612567648681		1.501496918268937
15
Lattice="50.0 0.0 0.0 0.0 50.0 0.0 0.0 0.0 50.0" Properties=species:S:1:pos:R:3:forces:R:3 Energy=-7373.509367670188
C		2.3980937		-0.02687119		0.16799621		0.10013243384836484		-0.5780509334032903		-1.759339943460015
C		0.90502511		-0.08091051		0.11486122		0.5117899549769113		1.7600467397083168		0.23601492532600635
C		0.22255507		1.16093861		0.09159464		3.6039174575827366		1.2039210938681186		1.1248705743366911
C		-1.1072041		1.31555522		0.12640383		-3.8188230606325226		-2.0576234897062595		-2.155574548243659
C		-1.77931155		0.065325		-0.21303763		0.09745653256286958		0.9640270424174743		1.5272380828198602
C		-1.12425622		-1.1944641		-0.21041148		-4.677485577192013		2.580090156086493		-0.6033505367040009
C		0.17694827		-1.2405308		-0.03885818		4.668696775389284		-2.359836144321838		-0.27281892954714876
H		2.71681055		-0.12021376		-0.91288399		0.25241311250723397		0.36451068895553473		0.4612985290183739
H		2.85631059		0.86591469		0.60688591		-0.10003612032540599		0.33460109775666025		0.1206922085432389
H		2.83630634		-0.91298634		0.60612675		0.28492080341112497		-0.718454863987566		0.6724373631499637
H		0.87594586		2.06419841		0.13661397		-0.15324792765345321		-0.22210191500066662		0.12717956451919485
H		-1.70477739		2.26967458		0.0715495		0.731894945604602		-0.5880334983856723		0.26235474552791005
H		-2.85484722		0.08402727		-0.33487008		-0.7248823646828363		-0.03252152343868861		-0.12738083047160326
H		-1.77020066		-2.02004602		-0.38543883		-0.4966779364215495		-1.3619233511490176		-0.3085764947975423
H		0.71645154		-2.21796432		-0.24662337		-0.2800690289753463		0.7113489006004007		0.6949552385606681
15
Lattice="50.0 0.0 0.0 0.0 50.0 0.0 0.0 0.0 50.0" Properties=species:S:1:pos:R:3:forces:R:3 Energy=-7373.295705093245
C		2.51109864		-0.06827557		0.18144605		-0.9798710540317358		1.7611256774225306		1.3822737352056171
C		0.95165962		0.11694214		0.09635519		1.5311896112084198		-1.5563746975760664		0.4682634416882535
C		0.26178158		0.27787555		-1.103375		1.9192483651736751		1.838005774542294		-1.8664002146712368
C		-1.0862024		0.43435721		-1.24149391		-1.504332485058323		-1.3779028084757587		2.922009950302652
C		-1.91006388		0.02662694		-0.14891479		0.1060773384875921		-0.29948785094869823		-0.5722047077018944
C		-1.21071579		-0.41584867		1.01074911		-1.9627590918891626		-1.0526141433837015		2.046545994748243
C		0.16963352		-0.29595024		1.1986204		-1.0196719874742157		1.0035796072983463		-2.7778653732079017
H		2.90295801		-0.3265279		-0.80912202		0.4159495664146149		0.6392479185421815		-0.40462570835542644
H		3.02690931		0.89701868		0.7572606		-0.9018843541281634		-2.3591941912942787		-1.5615821069957123
H		2.67064702		-1.00939112		0.74994281		0.22822571699513888		0.34028015033304854		0.3999531912293299
H		0.74270168		0.50648325		-2.08536557		0.7211486601507918		-0.19847831098121482		0.6354463883097726
H		-1.48013778		0.71653893		-2.17206343		-0.9182362100311283		0.4723111807556474		-1.6877389895370078
H		-3.02472156		-0.07234388		-0.36094161		1.0473238930214572		0.10012574898024704		0.7747169766377678
H		-1.72156946		-0.99142011		1.9152986		0.3394993063148264		1.3173665968392811		-1.7631646136205237
H		0.6107292		-0.62153999		2.08449959		0.9780927248462122		-0.6279906520538588		2.00437208739013
15
Lattice="50.0 0.0 0.0 0.0 50.0 0.0 0.0 0.0 50.0" Properties=species:S:1:pos:R:3:forces:R:3 Energy=-7373.482350239603
C		2.40159098		-0.22523894		0.15644045		0.5567444589396572		1.6854380579308588		2.234542741053113
C		0.94990487		-0.09117464		0.18554201		-1.9111103609932456		1.9901383062392604		-0.9259344527335314
C		0.42483271		1.03657382		-0.55312225		-1.7396275529321663		-2.5970675613790974		1.759341640388076
C		-0.94857863		1.16833093		-0.70936286		-0.8478146725323519		-0.4688768554711558		0.7614589805438483
C		-1.79217456		0.1736615		-0.15234004		-2.238539109480125		0.8220365355185312		-0.7258624691930314
C		-1.36599711		-0.97099948		0.44575802		3.515062087716736		1.0642173775081518		0.34621137670366553
C		0.05265286		-1.02828503		0.64997105		-0.8798436754569456		-2.76299272435322		0.14578766625604428
H		2.5086122		-0.99390072		-0.52404476		1.3320891961157495		-2.287458717255916		-1.9631450658898721
H		2.79937812		0.73468164		-0.2480896		0.4651307582220623		-0.49045149599043775		0.2577292795889503
H		2.84878087		-0.50232734		1.15276768		-0.05347462548920188		0.18358427054855594		-0.6078033787793339
H		1.1598067		1.57992613		-1.02345569		1.7271092632065133		2.2494676347232385		-1.333875135766515
H		-1.5149716		1.99368216		-1.1470804		0.46960746013436955		0.4437781581684165		-0.48233344357023666
H		-2.90686682		0.22968792		-0.22279003		0.4326602968913812		0.5480217344871694		-0.3191648630975848
H		-2.00373992		-1.74182218		0.7855158		-0.9798001944296871		-1.1389762117079483		0.4755139524929506
H		0.41897926		-2.04787834		0.95516947		0.15180661866519182		0.7591414910335925		0.3775331720034577
15
Lattice="50.0 0.0 0.0 0.0 50.0 0.0 0.0 0.0 50.0" Properties=species:S:1:pos:R:3:forces:R:3 Energy=-7373.38131342676
C		2.4723455		-0.05797445		0.24706578		-0.5022542477171734		-3.188879038692579		1.1907220788798232
C		0.97626533		-0.10813342		0.08890048		-1.021250336258892		0.7853187660961085		-0.4144298902031879
C		0.15954936		-1.2870455		0.13617409		-1.930474315625969		2.340308410420228		0.40519273943800366
C		-1.30414239		-1.12279026		0.17388991		-0.2667891270828253		0.48932802677014675		-1.8463861309030256
C		-1.93079524		0.15134549		-0.1779963		6.373712189512013		-0.7119864827526521		1.3790895782549188
C		-1.0174697		1.29609631		-0.2894361		-3.6984638099436133		-1.0175476906525642		0.333602841258422
C		0.33231149		1.13194812		-0.21839867		1.1514403540018472		-0.2248433794157789		0.8188035790305729
H		2.86587633		-0.66096252		1.14471568		-0.6057496330273565		0.6093959714753074		-0.725113506853525
H		2.80349858		-0.63673112		-0.5970575		0.9894427053131228		-0.5952538758617769		-0.9973244733563904
H		3.00303858		0.85631651		0.24259089		0.2689770844177832		1.8567318384903915		-0.0579879913320322
H		0.61520885		-2.2593665		0.13543637		0.31635372178786014		-0.9462410251929279		0.47279326259106613
H		-2.03825096		-2.00620799		0.25640484		1.2560327775922249		0.7995671511127123		0.0004843958282287046
H		-2.94012601		0.29581684		-0.18792109		-3.384441615889057		0.2990725663723952		-0.009624821693954495
H		-1.50147295		2.31351657		-0.22411943		0.5320925679374996		-0.5813245133205798		-0.6709316737395217
H		0.90934044		2.05774344		-0.29507145		0.5213715821384122		0.0863533265736311		0.12111001280060177
15
Lattice="50.0 0.0 0.0 0.0 50.0 0.0 0.0 0.0 50.0" Properties=species:S:1:pos:R:3:forces:R:3 Energy=-7372.9836627129125
C		2.37327116		-0.14596998		0.17658013		1.725498672788684		-0.2790354969422711		1.8574010966331087
C		0.95142654		-0.18609643		0.07923904		-0.2032412280930891		1.7870150403574194		-0.9788996912721563
C		0.42669622		0.9311615		-0.57899997		-1.2666272651176984		1.8581197199557733		-0.27536776691634324
C		-0.94916016		1.06757038		-0.73840233		-2.0938314093795434		0.9085040190707894		-0.5135088916803114
C		-1.86394344		0.17106503		-0.15391991		-1.2685879883587132		1.6503902199863267		-0.23534638709216327
C		-1.28674883		-0.84346552		0.53325557		-2.434723225145371		-2.5047719526914234		1.8173841391062993
C		0.07742279		-1.04537324		0.63339072		-0.5302749522962682		-3.8844132382543113		0.7843556822885823
H		2.95481701		-0.47750475		-0.63435681		0.9737472520372638		-1.656023249816827		-1.5597046360737952
H		2.59477555		0.86642077		0.07135256		0.7158737849852185		2.732720556192048		-0.11738304455873765
H		2.85610991		-0.33393348		1.14154333		-0.010514886172809127		-0.9476474700228519		0.35129542459550667
H		1.01768993		1.87127743		-0.73893826		0.08008112050694359		-0.850421411143859		-0.44945350835630876
H		-1.53299998		1.88543615		-1.2312697		1.2050159209996276		0.2403816868688069		-0.020374243893573722
H		-3.01408272		0.38575933		-0.06025396		1.9687296561375498		-0.41179394386021206		-0.5653627966053825
H		-2.05811118		-1.51264998		1.04650533		1.2284739459780079		0.17874164923989247		-0.3035448459873322
H		0.41154733		-2.07460351		0.98830704		-0.08961945029186617		1.1782338710607		0.20850941839054457
15
Lattice="50.0 0.0 0.0 0.0 50.0 0.0 0.0 0.0 50.0" Properties=species:S:1:pos:R:3:forces:R:3 Energy=-7373.55912985985
C		2.48890142		-0.05625073		0.1018694		-0.8800240126299389		3.320612592483936		2.4480182451242505
C		0.97339692		-0.11647003		0.1284959		-0.054870168841887515		0.5694940451021865		-1.9870647067228178
C		0.10654737		-0.12316625		1.20051585		0.03246346793018858		-0.8489546482346876		-0.5340915491929733
C		-1.2711136		-0.09460283		1.1351797		-0.1847955686515024		0.7436607762905024		-4.514192761016495
C		-1.91638867		0.08765702		-0.15613352		2.982570895951165		-0.32444261789865503		1.1041947914689416
C		-1.0391286		0.18158847		-1.29749116		-1.917566040978736		0.2437833077215837		0.7431216159657702
C		0.33072535		0.08418508		-1.11757322		0.5728530370651966		0.4609357977898893		0.031137344361803227
H		2.96510186		-0.62271717		-0.6343521		0.7721557465515243		-1.2417111161366374		-1.964625712755904
H		2.71639198		1.10129762		-0.07880956		0.03777089326128936		-2.025398363035502		0.24941669750652115
H		2.978374		-0.33084348		1.06470934		-0.2438477395658268		0.13336435307972644		-0.01763375649764797
H		0.47432823		-0.40991951		2.11840559		1.3621946025284133		-0.3516154755121622		2.8829595218615522
H		-1.7778569		-0.25796999		2.02030014		-1.7151074566760542		-0.20845069439523278		2.1791184480663217
H		-2.97780262		0.17049634		-0.17417651		-1.299231166700423		0.045169962404389155		-0.41905540756420995
H		-1.45304629		0.4066384		-2.31502477		0.19033295344585568		-0.18977497264626866		0.580429460901668
H		0.9718435		0.38581069		-1.93913023		0.34510060873279835		-0.3266729470130673		-0.7817321800847182
15
Lattice="50.0 0.0 0.0 0.0 50.0 0.0 0.0 0.0 50.0" Properties=species:S:1:pos:R:3:forces:R:3 Energy=-7373.294020762805
C		2.48188657		-0.01234193		0.20011716		-0.6436579774615605		1.3225411475610251		-0.20327953752961037
C		0.94092339		-0.0650657		0.037172		4.300681004391334		0.6959592029078376		0.2039687988546186
C		0.286082		1.1134517		0.03636903		-1.4593691879228992		4.759928975825602		-0.6111502865576695
C		-1.11445212		1.2145822		0.04980247		-0.3576706290532708		-1.2457859546309396		-0.015052574651175774
C		-1.90459748		0.05084341		-0.06341821		5.188201942349204		0.01975275684686755		-0.6120867851589117
C		-1.18696225		-1.14467443		-0.27318221		-1.4981742817040755		0.6922656590065626		0.9066095788682657
C		0.20811631		-1.17497226		-0.04232992		-3.2074008027865837		-3.9427187608219394		-1.1073488665131097
H		3.12107818		0.14168994		-0.75204489		-0.9509792597148286		-0.3076193759492598		1.0666777689299416
H		2.63562565		0.85552399		0.90176279		0.35295008372085096		-0.2374603995013257		-0.5997950610403897
H		2.80761187		-0.85557415		0.78507083		0.5612417810990049		-1.0965503876659184		0.16724449883026543
H		0.82885171		2.12524136		-0.05561654		-0.32992760361137724		-1.3363487940804155		0.41533790098183565
H		-1.65718426		2.13358304		0.13252442		-0.1165850769937214		1.2510104361753172		0.1482299571118534
H		-2.90141625		0.02519425		0.08317108		-4.092980712153357		0.17202736770236823		0.10339912320928682
H		-1.88644664		-1.98864541		-0.46854386		0.9824776383770559		-0.41240591782536606		0.2416863160150904
H		0.49573206		-2.21922277		0.0353661		1.271193081464222		-0.33459600697247815		-0.10444072850616586
15
Lattice="50.0 0.0 0.0 0.0 50.0 0.0 0.0 0.0 50.0" Properties=species:S:1:pos:R:3:forces:R:3 Energy=-7373.589388586853
C		2.47165812		-0.25391949		0.15707846		-2.913102774912175		0.2782778956962739		2.096906243025484
C		0.92600279		-0.13405228		0.05130536		1.3742566757160573		2.2477614506913244		0.1428549117686379
C		0.30429699		1.12480383		-0.36575662		3.586855360153286		-2.525719963957755		0.20076834111012537
C		-0.99818504		1.20457617		-0.64834678		-3.080341771581759		0.8792847176381722		1.3125251068159915
C		-1.84339036		0.25217207		-0.08869183		0.8730790002982256		-3.4613274722798137		0.2593906235824125
C		-1.26717228		-0.9865607		0.43468988		-2.018261443566745		1.082610226491608		-0.9821853553741203
C		0.11058497		-1.17000324		0.42562169		-0.6357197479937284		-1.2177119767951523		0.763894843641852
H		2.8024142		-0.01158864		-0.77972328		1.683201095370391		1.06390329155074		-2.9922777872567816
H		2.87862919		0.41321644		0.93515932		0.1557432346556428		0.12645266224447715		-0.0024963868655009476
H		2.76007652		-1.26869053		0.34514608		0.29969317924403976		-1.1429384358854966		0.423163978931476
H		0.91686065		1.98105014		-0.53055043		1.0476331453049994		0.9125769035267189		-0.38036534493672236
H		-1.47401406		2.14761743		-0.93190206		0.10851968076546369		0.30644844416533246		-0.49952383904548675
H		-2.9134905		0.30286273		-0.17869158		-0.9344892327300748		0.21494602079086772		-0.006518723434047204
H		-1.91666705		-1.86082343		0.71626747		0.21273703183236997		0.8027381440154246		0.02811125883105983
H		0.47585365		-2.14354269		0.83133961		0.24019667028813102		0.4326981435293405		-0.364247973638505
15
Lattice="50.0 0.0 0.0 0.0 50.0 0.0 0.0 0.0 50.0" Properties=species:S:1:pos:R:3:forces:R:3 Energy=-7373.609489010834
C		2.44724488		-0.14101749		0.29650718		0.14136881416398722		0.8811430081307972		-1.5381083982882868
C		0.94495736		-0.1459519		-0.01296727		-0.02058142338316326		1.9431385411648403		0.004756335087881345
C		0.29598686		1.00837056		-0.59709722		4.279863605163612		-1.430759957839125		-0.6784722049764069
C		-1.02562132		1.16759597		-0.69221271		-2.205431888750191		-1.4874668199074106		1.6327839742920867
C		-1.84256586		0.16590092		-0.10817465		-0.5602794172003531		-0.6944401951832223		-0.677532518207293
C		-1.25052988		-0.98405785		0.47017045		-2.2822109929393135		0.19352780618554244		0.13056601586355046
C		0.10317872		-1.09390559		0.55661291		2.7229501586393132		0.12779909752752813		1.1132149925526718
H		2.78905938		0.91262849		0.58430806		-0.34449655376526095		-0.9493730401723073		-0.11515904035800606
H		2.59981424		-0.82105806		1.16516513		0.5154177300603197		-0.026375198580865632		-0.44960134678583713
H		3.08009081		-0.37446618		-0.67387621		-0.821215222337165		-0.08405296061016919		1.7108854482390357
H		0.9635646		1.69602978		-1.12514619		0.20876935691620235		0.6004432361375047		0.19117000177832988
H		-1.41834122		2.1120945		-0.95509422		-0.8572460958494521		1.2986532341406076		-0.9509475837243626
H		-2.94289752		0.24337653		-0.24950839		0.2730174187081851		-0.05931087531048354		0.41088809280818694
H		-1.81617148		-1.79561072		0.97059299		-0.3921688165723322		0.39845326108988155		-0.23250737502459354
H		0.64566373		-1.69695378		1.32288897		-0.6577566728543879		-0.7113792396172429		-0.5519363932569565
15
Lattice="50.0 0.0 0.0 0.0 50.0 0.0 0.0 0.0 50.0" Properties=species:S:1:pos:R:3:forces:R:3 Energy=-7373.259415738758
C		2.4035235		-0.13813381		0.28329208		-1.2788892672841272		-0.8167111638876372		1.70160515436346
C		0.90791568		-0.06858963		-0.00096138		2.7687395512079105		-1.350753039368289		1.004444577810728
C		0.20452264		-1.23213851		0.19194626		-2.6148540928242685		-1.1783770815046084		-1.3977183002388085
C		-1.25806482		-1.09364123		0.03493905		1.5554695150108533		-2.459639528392619		0.9468826696881124
C		-1.86234596		0.12152412		-0.00802861		0.8164039170645304		3.8848550051927733		-1.588034644358495
C		-1.05427808		1.29288933		-0.30884979		0.18017046266697984		-1.714186641803858		1.3148307178298226
C		0.32817203		1.12935192		-0.30076779		-0.14641213578237222		1.8511937852092266		0.5403476601541156
H		2.63400562		-0.45659475		1.32764186		-0.7281645320845541		-0.1759549848318914		0.3126255194164973
H		2.86836906		-0.96239375		-0.21506784		0.9497416335159106		-0.45797183011057907		-1.3585600911548246
H		2.89609235		0.79856969		0.34181066		0.9834990862254567		1.5263644734009876		-1.0404977170760534
H		0.81384686		-2.19978912		0.24357194		-1.228257819049553		0.8281921677696567		0.230400407437986
H		-1.98589827		-1.92535253		0.03258686		0.548943012157928		-0.45850574538494193		0.2983392877619343
H		-2.92414169		0.3680943		0.01799165		-0.5486491350710568		-0.7350800795744867		0.060489468981715165
H		-1.43089912		2.29826634		-0.26122578		-0.7072259824777126		0.7756781064069209		-0.3301959239332135
H		1.06760797		1.94619022		-0.19453747		-0.5505141618538621		0.48089665972347045		-0.694958683838852
15
Lattice="50.0 0.0 0.0 0.0 50.0 0.0 0.0 0.0 50.0" Properties=species:S:1:pos:R:3:forces:R:3 Energy=-7373.665653596217
C		2.44499333		-0.35249832		0.15805953		-1.1162361415654205		1.7790704345538442		-0.9423008610801681
C		0.95874149		-0.02741384		0.08577283		-1.1798970662484103		-1.9970135388322359		1.016150604638005
C		0.12733509		-0.52697444		1.16276282		-2.3978683645044705		2.28979214760553		-1.0137271342570509
C		-1.33731408		-0.28372907		1.09616309		4.039029044190855		-0.4969354581102723		-2.982314454125754
C		-1.79042428		0.10755549		-0.17120221		-1.7292442043950909		1.0710238588036394		-0.7753741505958108
C		-1.03726572		0.60290529		-1.27175159		0.5365794514181709		-0.5671122265918123		1.7723750763352992
C		0.34962854		0.51765308		-1.06758512		0.45097750402098113		0.6777295161285185		-0.6125024296896519
H		2.58288847		-1.17819077		0.80859245		0.4434773391031152		-1.053760341155593		1.2855750095769947
H		2.82742229		-0.6693851		-0.82375931		0.23121400730998548		0.279160606820199		-0.2551771512077594
H		2.91997338		0.58000836		0.52410338		0.6538491103292181		-0.2884241885254797		-0.029317311883636902
H		0.54777536		-0.83365287		2.11125805		0.4952312281167314		-0.49755761364379025		0.4463702414921269
H		-2.09730982		-0.54649646		1.77191231		-0.8587665433918159		-0.60997446967781		1.7370017367354924
H		-2.88511981		0.16234931		-0.33627235		-0.022258193995358756		-0.03931432646556585		0.2818717322184688
H		-1.53498103		1.09020063		-2.14034998		0.3612452337241115		-0.4168672445410024		0.2521089510078738
H		1.02722247		0.94952699		-1.82206131		0.09266759588739833		-0.1298172077902313		-0.1807399620085544
15
Lattice="50.0 0.0 0.0 0.0 50.0 0.0 0.0 0.0 50.0" Properties=species:S:1:pos:R:3:forces:R:3 Energy=-7373.457943780214
C		2.44229393		-0.14304576		0.04078126		3.3894591236320943		0.6828070334184292		-0.932368946829294
C		1.00596328		-0.11993769		0.08675984		-3.1853495825925644		1.535748845530951		-0.2870618638251333
C		0.15017964		-1.17875626		-0.245523		0.2930609673181772		-2.7303410002524218		0.9027120436452727
C		-1.27641748		-1.10153726		-0.19437484		-0.3059160201307804		0.8681432022124124		-0.8175066631936562
C		-1.90236102		0.16162685		-0.21363373		3.104201454289894		0.5683046013757791		1.647201795004445
C		-1.06895972		1.28482463		0.15466696		0.29481754497128687		-1.443441872567477		-0.9821854067961828
C		0.31885927		1.10931482		0.34379771		-0.9636579348532467		-1.262743356741253		-0.20005285453327035
H		3.03638525		-0.08225022		0.97099258		-0.4145875502466432		-0.041008014936305646		0.6195836590647812
H		2.85543437		-1.02196884		-0.46252633		-0.06688210551864805		-0.6802199894568384		-0.17814659313328285
H		2.949418		0.70439476		-0.56046853		-1.0177674685474527		-0.5939077491111007		0.4806097760370916
H		0.68410695		-2.20239915		-0.27445101		-0.9087786128842439		1.0496708987955563		-0.3136023843367585
H		-2.07279523		-1.88033746		-0.20602045		1.158698475271786		-0.6083077263677911		-0.2323772257845461
H		-2.95806403		0.16499852		-0.13915267		-1.6312944314092521		0.4852502572182852		-0.306149219183967
H		-1.42555555		2.30342274		0.15609935		-0.6091281653740958		0.661029635706928		0.426533255306975
H		0.8687077		1.86650734		0.84423524		0.8631243060736884		1.5090151837527837		0.17281062855752527
15
Lattice="50.0 0.0 0.0 0.0 50.0 0.0 0.0 0.0 50.0" Properties=species:S:1:pos:R:3:forces:R:3 Energy=-7373.316709078537
C		2.44531388		-0.08553705		0.20661032		0.3436980719796202		-1.5410402786006314		-1.6022881715813428
C		0.94148528		-0.12902007		0.11488146		1.4533996006936982		1.337024325714751		-5.51234734072693
C		0.15314357		-0.20489687		1.15882166		0.7998918814370501		-0.055035542194709554		6.535544670536164
C		-1.18148972		0.07473596		1.13377392		-1.796732987406461		-0.6925641126569915		-3.0125862109104267
C		-1.85386046		0.16403136		-0.13025667		2.655228279418881		0.4850371641915145		0.9882583009488348
C		-1.10038305		0.16191839		-1.32507023		-0.47532811315927564		-0.17051576475474498		0.34847168488048297
C		0.25301026		0.02100306		-1.17663675		2.3198018575599844		-0.6803247361980382		1.293490150538789
H		3.02325706		0.81147008		0.5044827		-0.7015766518534173		0.38583063599952827		0.3512185486121519
H		2.72022937		-0.92106925		0.89320897		0.46592682317076806		0.15997316209027815		-0.24882261841909797
H		2.82969338		-0.2820434		-0.85667754		-0.029469006967848654		-0.17184456227037745		1.105118126022198
H		0.74091574		-0.33870928		2.18330158		-1.383954465316621		0.23556935315492336		-1.462327447753278
H		-1.80547518		0.12272203		1.98053776		-0.7842737669431081		0.041921425031510154		1.6683043809904854
H		-2.85035652		0.42914951		-0.04491119		-2.756712599288916		0.401872416865952		-0.32147962723853124
H		-1.42655461		0.27083493		-2.37805922		-0.6480085924767535		-0.06234205162540896		0.4555382295833231
H		0.85295051		-0.11779287		-2.06815917		0.5381096177303367		0.32643861667450697		-0.5860927269048859
15
Lattice="50.0 0.0 0.0 0.0 50.0 0.0 0.0 0.0 50.0" Properties=species:S:1:pos:R:3:forces:R:3 Energy=-7373.825407152586
C		2.44973881		-0.07907371		0.14059229		0.3777501216849118		-1.1089825968590392		0.24319560496990364
C		0.99825246		0.10079999		-0.06906603		-1.5684454610922638		-1.5414418334862618		-0.3118344424078487
C		0.29874317		-0.96634077		-0.68275093		-0.8608456916426408		-0.49652716693446175		-1.0755015891571957
C		-1.13196414		-0.99641668		-0.65506467		2.3920895531269397		-1.48466586016605		0.03285710381820246
C		-1.85532033		-0.14312739		0.11595491		-0.03296915249226938		2.830701490947728		0.3362264463064111
C		-1.25827624		1.04237081		0.60751426		1.6993939542562775		-0.26070749117955777		-0.03849116208995173
C		0.19280266		1.10473062		0.48135717		-1.44686529637473		0.3723068392648322		1.0799323197456774
H		2.86356571		0.78560847		0.62508182		0.8406064306629842		0.887217959165947		0.320777767508224
H		2.66166695		-0.97710757		0.79679386		-0.32827896086733893		0.5812868209488079		-0.07129920926058197
H		2.98489908		-0.36866851		-0.77851196		0.16426083650103887		0.4224589824553597		-0.33434465593124874
H		0.86062452		-1.800678		-1.21736492		-0.5167070354319946		0.7988099612432146		0.5432326949675733
H		-1.70514023		-1.82084654		-1.04512635		-0.02730588648905155		-0.8632411884216252		-0.6693928170988028
H		-2.90437166		-0.31416757		0.17826363		-1.3984839747486097		-0.02318399680761243		0.2672874582899766
H		-1.82625676		1.88029293		1.11604986		0.5179714525254464		-0.860431126975212		-0.3715015697669488
H		0.71167693		1.86672571		1.05792086		0.18782911038130026		0.7463992582259927		0.048856101528672216
15
Lattice="50.0 0.0 0.0 0.0 50.0 0.0 0.0 0.0 50.0" Properties=species:S:1:pos:R:3:forces:R:3 Energy=-7373.090697519144
C		2.4249755		-0.28462036		0.27715481		-0.3953094190361398		-1.6631490106980333		-2.7735442744565524
C		0.98461064		-0.02942681		-0.04247327		-0.11569043595130919		0.6903883423508329		1.1537292528453837
C		0.24501266		0.753374		0.84388779		0.24080751296791117		1.8333308405792628		2.096570148425346
C		-1.10863838		0.78261451		0.90300763		-3.8147699222485723		2.1874596208154706		0.18969264592429474
C		-1.87872286		0.14469091		-0.06712465		0.21371682781019052		-1.1148284111839357		0.6229822460158737
C		-1.1601626		-0.58101431		-1.00583024		-0.12765023065675085		-0.5879946747285266		-0.5902343626583036
C		0.23701428		-0.69567591		-1.01353423		-0.2866710561505539		0.7328295415895337		1.3119428548029306
H		2.59864509		-1.20214098		-0.45094313		0.8935816450817237		1.5512827306866088		1.2873720049711854
H		3.07045167		0.60373847		0.1157829		0.1655105983066939		-0.2904390591982488		-0.19570059401207915
H		2.50118376		-0.62025719		1.29884676		0.28464153018998806		-0.3113287064237054		0.928211318814456
H		0.48419881		1.4105722		1.71381135		1.843024413570706		-0.45786507790894393		-0.48230937804501256
H		-1.73024823		1.52579042		1.59761321		1.5368774569574861		-1.5792572068315658		-0.7602552414840814
H		-2.91986235		-0.10685703		0.17847642		-0.3870147832535038		0.4935346600104947		-0.6647650885890954
H		-1.7051387		-1.19493619		-1.70018146		-0.5128489409308966		-0.5862851482625537		-0.7055333224482218
H		0.7502853		-1.48647516		-1.50255541		0.46179475192096486		-0.8976784922187522		-1.4181582615281865
15
Lattice="50.0 0.0 0.0 0.0 50.0 0.0 0.0 0.0 50.0" Properties=species:S:1:pos:R:3:forces:R:3 Energy=-7373.272383937494
C		2.48884519		-0.24358153		0.10262952		0.7547942184524583		3.3375183154214914		2.539512749501099
C		0.9741258		-0.05670367		0.1348097		0.36653589546285525		-1.917591237789334		-1.5109618173486885
C		0.23479746		-1.01142656		-0.62909252		-2.3249987768788913		2.061149860482527		0.6407684175066077
C		-1.16410956		-0.8480125		-0.83076645		0.8070940040809871		-1.2067658137846198		-0.15704241306330716
C		-1.85924678		0.22851227		-0.19265416		-1.6352869431815802		-2.7519989445128634		-3.1264201561412954
C		-1.2215925		1.12255174		0.54338488		3.381771011075993		0.9655933070174764		4.388113268679178
C		0.23252071		0.86915125		0.82146078		-2.7439395132438498		1.379570066006402		-0.9376544663617934
H		3.04626923		0.69098131		-0.34779541		-1.0346892865905546		-1.2595792543949083		0.41338602233556115
H		2.8909748		-0.19617263		1.21215866		-0.3704842871056061		-0.527513947497427		-1.6760043720430111
H		2.8463265		-1.09500496		-0.45094401		0.12413270447522384		-0.9675628234311693		-0.25064434782532496
H		0.69896258		-1.91683091		-0.89175172		0.940170239344836		-1.4948122558393808		-1.0487996547915566
H		-1.64264917		-1.69578327		-1.43249057		0.024919851369556847		1.1867227279731896		0.7372982216600995
H		-2.94687858		0.32693189		-0.29222329		-0.23028733032267024		-0.19151370684370997		-0.22084351428852095
H		-1.88741892		1.70091326		1.27667621		1.228776359127245		0.051800683090440836		-0.9654979705137039
H		0.74398633		1.46534098		1.52560261		0.7114919053560592		1.3349830755239478		1.1747899298505313
15
Lattice="50.0 0.0 0.0 0.0 50.0 0.0 0.0 0.0 50.0" Properties=species:S:1:pos:R:3:forces:R:3 Energy=-7373.459237834922
C		2.42713537		-0.17674973		0.04761477		2.746341900579202		-0.5456808479385012		1.4706933030923999
C		1.0016667		-0.05183633		0.18409625		-4.462835233260202		0.16006685308805235		-0.8730007873412472
C		0.07296637		-1.17120225		0.38974706		2.4782582744963944		2.2856244408664526		-0.28454228560946987
C		-1.24982524		-1.10726613		0.07505137		-0.7539737794461537		-1.3217946534805158		-0.21670588945597377
C		-1.80254331		0.09756188		-0.27009445		-1.686007711538621		0.6001334182112756		-0.1803995479551708
C		-1.08547563		1.24861933		-0.27380098		1.587766478302846		2.581381518340666		-0.640739312619264
C		0.32754823		1.17022207		-0.10636321		-0.9902603675280552		-1.159152840615547		-0.08953223847396002
H		2.78079507		-1.24863002		0.13373131		-0.178761138201559		0.6796640655397491		-0.23046885020309987
H		2.95378362		0.33031017		-0.80225321		-0.635561265197274		-0.25912168619582693		0.00454092806830066
H		2.84928359		0.34338123		0.9489872		0.3560876522829744		-0.20395224095051143		-0.17064154311948462
H		0.44608846		-2.05984907		0.80065375		1.014150286408908		-1.9842392700797336		0.361183321560928
H		-1.78705394		-2.06780545		-0.04332989		-0.25092809476589467		0.27017562984924337		0.45918425949889924
H		-2.8197816		0.27881543		-0.54439165		-1.3717489245747563		-0.6424483762866748		-0.29294943286473474
H		-1.57085284		2.26044218		-0.62755679		0.8436449089107768		-1.7141836079021737		0.7878515597818203
H		0.82423875		2.05312529		-0.41626094		1.3038270135314147		1.2535274432878585		-0.10447348435994311
15
Lattice="50.0 0.0 0.0 0.0 50.0 0.0 0.0 0.0 50.0" Properties=species:S:1:pos:R:3:forces:R:3 Energy=-7373.230454196126
C		2.54296882		-0.01440113		0.21411316		-1.8463503925696265		1.921213767822373		-1.3231424771592528
C		0.95490532		-0.03056502		-0.02861458		1.2454184411506477		-1.1806628950243985		3.358665175803297
C		0.11138644		-0.42348132		1.13249188		2.6521074744491147		1.0207278881044544		-0.36440126280665247
C		-1.23332928		-0.32903348		1.13003366		-4.406393091969382		-0.7785547080021378		-1.4683518509010445