15
Lattice="50.0 0.0 0.0 0.0 50.0 0.0 0.0 0.0 50.0" Properties=species:S:1:pos:R:3:forces:R:3 Energy=-7373.630667460089
C		2.45615935		-0.21156183		0.08508407		0.25420738253211556		-2.6381408309126453		1.4641673291475479
C		0.98861519		-0.22456574		0.17177191		-2.4028402608781203		0.5857740129618538		-1.4049682968228814
C		0.34119432		0.8228951		0.8281386		-2.0576227183753226		-1.2715931965321041		-1.245737669314304
C		-1.04514623		1.07788521		0.59488516		1.0909027539696838		0.21883378582199625		0.5304251047186066
C		-1.91102333		0.30127899		-0.16958906		1.3119270682297601		-0.47277181959102665		0.38606856588245964
C		-1.25406563		-0.79823857		-0.7478639		-2.5071376760962525		-1.4309005457578485		-2.7957625649314544
C		0.10769215		-0.96882241		-0.71236286		2.2499978990311678		-0.5934470588536588		0.9015405976407208
H		2.96043495		-0.26706325		1.092789		-0.2950378885088622		0.0964917004052204		-0.4260359011190103
H		2.69759974		-1.1528124		-0.43661406		0.7733912130238196		0.09790344170757614		-0.31184986902658207
H		2.81137242		0.65433293		-0.40981667		0.6985949435625637		1.306439768524228		-1.0106241213208902
H		0.93919535		1.46316165		1.4098717		0.7612414652197075		1.4042302359606131		1.1631441696804392
H		-1.36320777		2.01275047		0.98132249		-0.859881373705616		1.2806497015919203		0.7974764328978373
H		-2.96441731		0.55547583		-0.31959424		-0.11832226852928936		-0.0467427061842591		-0.02663020058852871
H		-1.83390912		-1.50872646		-1.52567775		0.9777445974834619		1.405598371354016		1.700120856530995
H		0.52531775		-1.74247097		-1.38813819		0.12283486304118303		0.05767519092618133		0.27866561804710666
15
Lattice="50.0 0.0 0.0 0.0 50.0 0.0 0.0 0.0 50.0" Properties=species:S:1:pos:R:3:forces:R:3 Energy=-7373.558339860758
C		2.48373384		-0.18021695		0.3385908		-1.2611834684769943		0.6827735062337154		0.8745227261234219
C		0.98770374		-0.09966349		0.05549202		-1.069154975366151		0.10865373808225691		-0.06767945601891497
C		0.19170593		0.27271764		1.12466441		-1.4238002387975524		1.3576135138293435		1.4897199804175487
C		-1.25182986		0.43905909		1.06002179		2.422170328371693		-1.6816826532884628		-3.1946510109358046
C		-1.9019073		0.10306627		-0.17269781		2.539786417717429		-0.005067952786295989		1.7160686892893324
C		-1.09480948		-0.25352454		-1.27703885		-2.7068263081612276		1.0190589850678127		-1.1521620112261954
C		0.2728801		-0.29640464		-1.18594588		1.3832853100180285		0.14831562626788622		1.9318164314557749
H		2.98327204		0.76377122		0.07176843		0.3819245132921069		-0.02551506174235379		-0.32531473607771644
H		2.73716875		-0.40880553		1.41695942		-0.5465156337002277		0.3634329339487571		-0.5400531660024951
H		2.80708531		-1.03435442		-0.17848439		1.409903066467446		-1.4146954998431631		-1.431671413895957
H		0.78238321		0.62429932		2.02649559		-0.9049016979082911		-0.4767031391090458		-0.330359394669725
H		-1.77549219		0.76210235		1.89350027		-1.3498069762634322		0.7853065276452467		2.07449501697229
H		-2.95746401		0.08041467		-0.26097442		-1.542143436106257		0.237947520698864		-0.09389354927814147
H		-1.73117848		-0.2289879		-2.25704808		1.5750925339941726		-0.574000726076899		1.0929388105321802
H		0.87833763		-0.37890449		-2.03332198		1.092170564919257		-0.5254373703497243		-2.0437769166855984
15
Lattice="50.0 0.0 0.0 0.0 50.0 0.0 0.0 0.0 50.0" Properties=species:S:1:pos:R:3:forces:R:3 Energy=-7373.78235992745
C		2.4787351		-0.24092976		0.25661538		-1.3667670523209927		1.9952849347810964		0.5794402032643577
C		0.9719885		-0.07440537		0.06187942		-0.9647058650638064		-0.1551560975466497		-0.1646761724994044
C		0.13223584		0.25059927		1.18010182		-0.08548475651687833		-0.5610075536045694		-2.5575793254983434
C		-1.2735365		0.27303659		1.09444671		0.7111898521612594		0.001982114818991895		-0.843818149839153
C		-1.89524297		0.0794511		-0.13723793		0.046786054982899956		-0.35029881360326676		-1.8415422240428008
C		-1.04327043		-0.07108379		-1.3170469		-1.934853264197569		0.012581487440397603		1.938588254281175
C		0.32027944		-0.18815655		-1.20513382		1.1171455407397544		-0.4935305976675615		1.5383280733390503
H		2.97865034		-1.19418387		0.22221635		0.10369264034172093		-1.0721106640934075		-0.6674426868026514
H		3.03500894		0.57753057		-0.24261665		0.1659227975592503		-0.3389011134624076		-0.42143979717770647
H		2.52061467		0.04651024		1.29653293		0.7605935472329046		0.16121937577362452		1.1628969838262677
H		0.59498621		0.53076199		2.07477031		0.9488507977061192		0.27460260662716673		2.05571778807206
H		-1.83802542		0.47995025		1.98264189		-0.6227985664088215		0.09809509173430737		0.8456578255451732
H		-3.02735207		-0.03575997		-0.25430381		1.2601427887772392		0.41531321839186225		0.1707425360501259
H		-1.51492986		-0.17349218		-2.27685622		-0.44892231845125546		-0.1804620771831035		-0.8696899264286854
H		0.93092674		-0.56987077		-2.01074217		0.3092078548802378		0.19238813901558147		-0.925183433511527
15
Lattice="50.0 0.0 0.0 0.0 50.0 0.0 0.0 0.0 50.0" Properties=species:S:1:pos:R:3:forces:R:3 Energy=-7373.17383110108
C		2.50237261		-0.31331827		0.10226461		-0.918454856640643		0.4946224423194491		-0.3537274824608894
C		0.92447269		-0.12054535		0.09340886		3.314191108169971		0.15625586119615364		1.6000238010615924
C		0.02122113		-0.63868515		1.01878196		2.3924501760508643		-1.0560185924499128		-0.4564436692588486
C		-1.32762313		-0.50366496		0.87649578		-2.3143262306626267		-2.051281349634647		2.1416421518007778
C		-1.9219361		0.11109171		-0.20625577		-0.7331788002376578		1.9568023087535107		-0.9034073727736494
C		-0.97378099		0.8113154		-1.02337472		-0.3810365571178124		-1.1810322082768763		-0.15322345075172955
C		0.42056047		0.69944233		-0.85424777		-1.0957952546789185		2.4620387275601		-1.288272199596342
H		2.96977338		-0.89215256		0.90040344		-0.45737353441403544		-0.9880473162266245		0.4516882083460288
H		2.69488472		-0.78569837		-0.88820638		0.4460452540574767		0.016634882934660436		0.2918637074382782
H		3.17592316		0.59120702		0.20269355		-1.0267060113960207		0.11948337869928981		-0.5322285278706033
H		0.54104814		-1.31547272		1.68504472		-0.43135577058922264		-0.3980387992665776		1.136299487669454
H		-1.94980596		-1.08813365		1.64213453		0.4098251473553933		0.8546774609862162		-0.8032530845487457
H		-3.09198357		0.22740561		-0.26011367		2.137934209722018		-0.310770674202056		-0.28206590192625985
H		-1.14514217		1.22322356		-1.99919627		-1.231733950470812		1.0307327702619373		-0.6383704010465634
H		1.03215758		1.4970137		-1.36633341		-0.11048498057003617		-1.1060589440766855		-0.2105252146604377
15
Lattice="50.0 0.0 0.0 0.0 50.0 0.0 0.0 0.0 50.0" Properties=species:S:1:pos:R:3:forces:R:3 Energy=-7373.465652663822
C		2.52252723		-0.29335775		0.19495814		-3.484117061868476		-1.7155398647991513		0.6919570237877697
C		0.94599273		-0.21524991		-0.0164181		1.1716424368303562		0.4955552385321952		1.9044245672783162
C		0.36895899		0.79352816		-0.82979965		-0.7672910137560096		-1.1949503608084602		0.0979715759403153
C		-1.00731462		1.00481742		-0.96153319		-0.4934815410199894		-1.4987537569257643		0.9841460271930729
C		-1.90959738		0.21703905		-0.15291505		0.666272320661411		1.8869340212245762		0.07582764176770859
C		-1.33586773		-0.56599182		0.82335448		1.638472745638277		-3.238644333707335		1.1929343588503174
C		0.08552511		-0.92283652		0.86966963		-1.5322384155940414		2.5342198251916077		-1.903463900307725
H		2.8118667		-1.20200138		0.75748259		-0.049277042531844215		-0.8326971518163085		-0.9739828679273852
H		2.98038153		-0.09818833		-0.72234159		1.4957279799273953		-0.04192595017300529		-1.9681712125394004
H		2.92421006		0.33988255		0.93109389		0.22134621637097995		2.391883710610974		1.2522118098202117
H		0.95333808		1.37054629		-1.49737431		1.3069185593476502		0.8743037709815326		-0.7975803054639755
H		-1.3103495		1.72683414		-1.70856279		-0.553376673803969		0.43634180803004424		-0.29045793109516604
H		-2.99050296		0.39393198		0.0025233		0.07442448794978114		0.11965939641903789		-0.761557350949305
H		-1.98494281		-1.17572193		1.51716693		0.25879783004655044		0.668477864341725		-0.3771014323671724
H		0.54569498		-1.56796931		1.58682611		0.04617922322399051		-0.8848642171016675		0.8728419960124182
15
Lattice="50.0 0.0 0.0 0.0 50.0 0.0 0.0 0.0 50.0" Properties=species:S:1:pos:R:3:forces:R:3 Energy=-7373.721771672093
C		2.55078751		-0.22793364		0.1820881		-2.3115908340508833		0.1256553117442102		0.9162265844087285
C		0.98290951		0.0265828		0.05672167		0.8042384855313726		-0.8831370528682763		-1.663703957595936
C		0.22125582		0.34144715		1.16249824		-1.726800062345034		-0.040426122877681867		1.6509167819057602
C		-1.20029185		0.38860086		1.07555337		-1.4337149780795702		-0.2609963289043094		0.7648865695381596
C		-1.9105974		0.0794455		-0.10971183		0.06269799514165089		-0.31566050096404363		-0.11631392845845069
C		-1.16563506		-0.3029236		-1.25436221		-0.12682243829551668		0.8375428070266563		0.7102217289916136
C		0.22067993		-0.23913752		-1.16980222		-0.2659830862540053		0.6637362873857653		4.034917901720467
H		2.99726201		0.54603144		0.81029026		0.10946754364250612		0.5406219454351955		0.3331738784135087
H		2.72702403		-1.17499827		0.76406863		-0.05663312283074027		0.21034282060494655		-0.640833569259725
H		3.0793193		-0.18573594		-0.75774998		0.3074609959969302		-0.3479179206900164		-0.9009829253735087
H		0.54705997		0.4289647		2.23175523		0.5944658327548125		0.11610366364511449		-0.7891795859665162
H		-1.83050035		0.52062189		2.04200302		1.02518983188484		0.10974702255189284		-1.3316435725226041
H		-3.02661518		0.06333492		-0.1926974		0.55385207077127		0.08767924445376668		0.41969334967089844
H		-1.6537393		-0.57938574		-2.20787442		0.06609596502799409		0.09557499929801944		0.17538378856225612
H		0.74569997		-0.40507488		-2.0096928		2.3980757496823104		-0.9388661758412393		-3.562763044034651
15
Lattice="50.0 0.0 0.0 0.0 50.0 0.0 0.0 0.0 50.0" Properties=species:S:1:pos:R:3:forces:R:3 Energy=-7373.1326600954835
C		2.48412276		-0.01328564		0.23210954		-2.653241793724581		1.2961703198554673		-1.4486705192989127
C		0.89626666		0.07213698		-0.00950088		3.5100603151248064		-1.3696436024941467		-1.0597757968644943
C		0.24820021		-0.15607672		1.19744134		-3.2491025013452677		0.7500980471776373		-1.5707264923602462
C		-1.19053055		-0.12976531		1.1428846		2.124882261832315		0.2812276708863495		2.4941260945255683
C		-1.81976852		0.08688322		-0.04890062		-0.6812437512980491		-0.34654402602562		-0.14558038392232983
C		-1.18667413		0.05227244		-1.25240994		1.8437813977519535		1.7190083343331066		-2.6025017420941245
C		0.28952584		0.08450283		-1.29233289		-3.6719151133240597		-0.7175767808492609		0.9772238976791473
H		2.98427348		-0.07264457		-0.73782487		0.5315210631354896		0.1409688019402302		-0.21866537856749
H		2.70710463		0.92112232		0.78667413		0.5783116946819472		-0.3034089888983534		0.018798774744394203
H		2.62161897		-0.92248013		0.78609309		0.6067465011299088		-0.7209412749729525		0.7318725770074385
H		0.88387047		-0.2476664		2.05391615		0.07731584767691951		-0.1541114583480864		1.1907211532826991
H		-1.75723849		-0.10813708		2.08885242		-0.08816009215968668		-0.24895317903564496		-0.043154011868308674
H		-2.85817204		0.26699287		-0.12620098		-1.8037348725392384		0.07825013512947655		0.4434121873499978
H		-1.87501346		0.3283043		-2.17143896		1.580181209871634		-0.9164031677711636		1.2010842415271716
H		0.61650992		-0.12459274		-2.3134334		1.2945978331859094		0.5118592204950242		0.03183534743742705
15
Lattice="50.0 0.0 0.0 0.0 50.0 0.0 0.0 0.0 50.0" Properties=species:S:1:pos:R:3:forces:R:3 Energy=-7373.42024180811
C		2.56613817		-0.23333651		0.14555645		-1.5914670670266757		-0.0010206250954016274		-1.2082411641782194
C		0.93250947		-0.08818869		0.17609522		1.6151670328088579		-0.4582879215284264		-2.5129791195458413
C		0.29695639		-0.56530722		-1.06089529		-0.30832524660043764		2.0489682824217614		3.9350268944552798
C		-1.087131		-0.4585162		-1.18546507		-1.0372596698039132		0.4491855994109721		-0.37714467832168835
C		-1.93610554		0.15991697		-0.1820679		1.5520040793785825		-0.5827078182224037		1.0252206337002443
C		-1.25372242		0.67184022		1.00004969		-0.8960256328655934		-1.1210095487780336		-2.3671998350859758
C		0.13356655		0.548554		1.12158271		-0.06448002671567063		-0.9270034145676308		-0.9656559905115963
H		3.03776141		0.34844317		-0.78994528		-0.8870877070817748		-0.9207814992780143		1.9363878528071052
H		3.12660962		-0.07434567		1.09201549		-0.30984816240179874		0.577192956291401		-0.11046842266592899
H		2.71224251		-1.32786216		-0.04466844		0.14064854533532486		0.33410400067900764		-0.19698665979382016
H		0.98977072		-0.7037061		-1.83350764		0.8865583683709691		-1.0663499018597946		-1.8745479376214684
H		-1.47459656		-0.78796817		-2.18044149		-0.3426077699896062		0.12478473622702212		0.5471757901378924
H		-3.06389076		0.10627373		-0.20882164		0.9525504094107626		0.2759383461212292		-0.25669533617937557
H		-1.79983917		1.14139684		1.80171582		-0.5542062659373889		0.34475962903672785		0.5354880695648455
H		0.61627927		0.88234304		1.98733862		0.8443791645404242		0.9222271791415835		1.8906199032385473
15
Lattice="50.0 0.0 0.0 0.0 50.0 0.0 0.0 0.0 50.0" Properties=species:S:1:pos:R:3:forces:R:3 Energy=-7373.632952854073
C		2.44715023		-0.11868117		0.13476606		-1.470634116298526		1.0453650209746903		0.9679876725110871
C		0.93326238		0.05587258		0.10492085		1.1919217041745944		-2.06664307372524		-1.7420053090996077
C		0.33411961		-0.17973418		-1.14927072		-1.8207424111604351		1.1758374486845915		0.0965235820839361
C		-1.0745089		-0.04099005		-1.29979948		0.8963677438470378		0.47783216191208083		-0.16739917639409896
C		-1.86242832		0.05687007		-0.15300237		2.066260493580652		-0.613074191601974		0.6777929709535753
C		-1.22277245		0.01418647		1.15448616		-1.9126491147898397		1.1390024883818572		-2.3893211949731694
C		0.14389401		0.18446728		1.23511774		0.1864999014891682		-0.4001898355607002		1.0124134034057146
H		2.85566035		-0.9560728		0.72752481		-0.06937484141771544		0.03071408936582122		0.023333172210764395
H		2.73553003		-0.11276472		-0.88191682		0.9132608169572328		-0.6120071323841849		-1.6595340911302363
H		2.78751553		0.8524054		0.46427041		0.976672241793241		0.6612512133740022		0.8853327749346633
H		0.82796095		-0.2221022		-2.11447952		1.0285760261188834		-0.26211676422291613		-0.1366568563159956
H		-1.4388889		0.15858725		-2.34351939		-0.21872009164193112		-0.537356593047897		0.6999981488025535
H		-2.90349271		0.1706648		-0.32278149		-1.6036167634087257		0.06678676901487567		0.38393892116631406
H		-1.93732264		0.10829815		1.95717552		-0.05281590886928577		-0.047309480156524156		1.056174041344683
H		0.66321769		0.33593342		2.19009988		-0.11100568037435084		-0.05809217243054508		0.2914219404998161
15
Lattice="50.0 0.0 0.0 0.0 50.0 0.0 0.0 0.0 50.0" Properties=species:S:1:pos:R:3:forces:R:3 Energy=-7373.770141703563
C		2.44848168		-0.37176783		0.02440762		0.6565502598473737		2.473393593122942		0.809720128810036
C		0.97055		-0.11336804		0.14408474		0.22370067834413362		-1.6284567048932432		-0.6551225777056601
C		0.03643875		-1.18570602		0.13199269		0.8309323466332078		-2.4160801564060597		0.20186666494188085
C		-1.31885621		-1.02277676		-0.12240472		-0.4522214551335801		0.6179951287117408		-0.17956167686969748
C		-1.88054451		0.30133382		-0.21671189		-0.930052485760287		-2.120148963828408		0.019316440647024605
C		-1.01347643		1.32249195		0.04455838		2.391932612992359		1.068543361355434		-0.8011732163890464
C		0.442967		1.1279128		0.02120166		-2.622162864825716		1.6363027860251746		0.9865282570799466
H		3.10117837		0.62980468		0.1758387		-1.2950512215104841		-1.956540313345355		-0.26361191211055707
H		2.75400703		-1.10219287		0.7698437		0.45300373896955065		-0.5180338789092542		0.35197321880058974
H		2.64344123		-0.74577875		-0.9764524		0.3882347716850034		-0.36298473925248936		-0.6323146818627678
H		0.41462929		-2.28648209		0.27217401		-0.4403047521164669		1.7525763481646064		-0.29372446618990067
H		-1.93403299		-1.92791744		-0.25728111		-0.10888858264144168		0.13739080341326826		0.06045769014712436
H		-2.98377495		0.42911807		-0.47778542		1.1518636604198917		0.041264353917592284		0.5558971776167567
H		-1.37863354		2.33750873		0.1234433		-0.21408840363341564		0.7384565550387281		-0.13242014116911757
H		1.13013705		1.97456925		0.04766229		-0.03344825184806628		0.5363217754632607		-0.027830905746611543
15
Lattice="50.0 0.0 0.0 0.0 50.0 0.0 0.0 0.0 50.0" Properties=species:S:1:pos:R:3:forces:R:3 Energy=-7373.463643150789
C		2.47173193		-0.05714189		0.00637568		-0.7514438653959389		1.4058486939539965		0.6711213183058177
C		0.95123984		0.0107086		0.11137579		1.3372933659454616		0.12881380908574863		-2.512461093688774
C		0.13646811		-0.0899733		1.19577622		2.368174540279614		0.15618294471160712		1.631756767172692
C		-1.20810617		-0.10255208		1.17436227		-2.430430768482803		-0.10103828490038996		-0.7138107318399389
C		-1.86088836		-0.02455409		-0.07436555		-1.5946497841596257		0.19691898835964297		0.07794700207136529
C		-1.0886037		0.06920523		-1.23802143		-1.005919722516078		1.0699675982189636		-0.1714032067084149
C		0.29412231		0.17049847		-1.12419118		-1.8145583425087777		-0.9910422914095889		1.5267263818764731
H		2.61748675		-0.63708907		-0.8706355		0.7798463273666228		-1.2463808050492995		-1.0941705231939172
H		2.79818537		0.94432988		-0.31833344		0.284450600072131		0.36064950913069005		0.09888776282689182
H		3.14025373		-0.3584227		0.83287876		-0.4684923212881946		-0.23275152697708082		0.24506294574551907
H		0.65767475		-0.04540672		2.13453249		0.29256952666739366		-0.37222754644454253		1.1455873405882084
H		-1.67717232		-0.20203513		2.15346416		-0.7421306614003991		0.12803003400996713		0.05698988909998134
H		-2.98156812		0.08360679		-0.19151346		0.8295464192061993		-0.40085559700317125		0.4110574770818796
H		-1.56273823		0.26432959		-2.26003972		0.3681974451445671		-0.45203263332028315		1.1481120610101165
H		0.63085848		0.23558982		-2.09108059		2.5475471896477653		0.3499171590558024		-2.521403338925838
15
Lattice="50.0 0.0 0.0 0.0 50.0 0.0 0.0 0.0 50.0" Properties=species:S:1:pos:R:3:forces:R:3 Energy=-7373.673774272439
C		2.50905312		-0.02480798		0.17956792		-0.2586718974156234		-0.7863098235056044		-0.7946046135544278
C		0.95866774		0.01046889		0.03505724		0.7987448609121596		-2.2471001629682865		0.016866025105349184
C		0.28659211		-1.00078893		-0.72023265		-2.0651407267488566		1.2813982011328646		-0.3440819890978321
C		-1.18903201		-0.89015716		-0.89330724		2.5099967427681764		-0.3479748963352051		0.9819819811171517
C		-1.90794359		0.08323238		-0.15910243		2.6756642812094507		-0.004335239818522018		0.5136897430739292
C		-1.19441846		0.96219795		0.73818704		-0.6533846662612179		-0.8580585130140153		-1.4721918448361622
C		0.20521599		0.88543755		0.8136338		-2.4100855780545105		-1.3191735681135865		-2.0365944372695153
H		2.98152852		0.90161174		-0.25685711		-0.2252322330519854		-0.366462773290059		0.3976979738366943
H		2.93230446		-0.219792		1.22904223		-0.6567492632290345		0.3001884251274443		-0.9731727133335696
H		2.83059732		-0.88439732		-0.49960874		0.11841755361099933		0.7131839483208008		0.7153293281880544
H		0.83942549		-1.81756986		-1.24738615		-0.24077100330357545		0.47914388730298163		0.21143373965971002
H		-1.61918187		-1.6893793		-1.5182383		-0.4380032548676313		0.279115509671435		-0.00201384223152025
H		-2.96198558		0.20922174		-0.18188671		-1.4641495885360045		-0.10140153034949906		-0.36357331617923094
H		-1.85733449		1.71522508		1.19179211		0.5285849147919619		0.12121342256817798		0.5441577264488904
H		0.80924001		1.48142566		1.35768707		1.7807799095977543		2.856573113271073		2.6050762390724786
15
Lattice="50.0 0.0 0.0 0.0 50.0 0.0 0.0 0.0 50.0" Properties=species:S:1:pos:R:3:forces:R:3 Energy=-7373.373682633728
C		2.41042685		-0.32194456		0.14685191		1.518285758858557		3.7345027567197038		2.7310584922897116
C		0.96353438		-0.02421075		0.20151543		-0.09756004517457069		0.8337416367486845		-3.448945245331389
C		0.39113665		0.95527622		-0.74862714		0.005270041491703506		-1.368653676370025		2.740904737384553
C		-1.01957344		1.07076192		-0.81520879		0.6944298079266087		-1.337686590456976		1.3057296812639296
C		-1.92801352		0.18003261		-0.10575953		3.0858589989276344		0.9011848598127287		-1.2264645260438578
C		-1.25954715		-0.8684575		0.58428716		-2.625768117045773		0.9529750013803684		-0.13820568883682882
C		0.12279508		-0.95928586		0.71539622		-2.4837593038925996		1.0058963254776658		-0.0618360585309535
H		2.89257777		0.44780501		-0.49056969		0.2864095749630228		-0.30951731285202977		-0.12886291715538328
H		2.97128224		-0.21006178		1.1760063		-0.9678447705995534		0.07040071156348643		-1.1460531216298324
H		2.70394757		-1.27775805		-0.11620639		0.38230184838632575		-2.7149390641089965		-1.20788064409842
H		1.1634981		1.62291087		-1.15726016		-0.4886645793204858		0.3158735425687519		-0.5436508591793733
H		-1.41480994		1.88894004		-1.35050515		-0.7982040550814292		1.3029854914795078		-1.0986373006481727
H		-2.99114301		0.43222867		-0.24117603		-0.08053276048139506		-0.6606718924185006		0.4250933347143996
H		-1.93484818		-1.56131613		1.09852899		0.17498758157111996		-0.4871869149340759		0.20720355511476243
H		0.4136612		-1.72492227		1.33861948		1.3947899680487723		-2.2389048231882307		1.5905465092647915
15
Lattice="50.0 0.0 0.0 0.0 50.0 0.0 0.0 0.0 50.0" Properties=species:S:1:pos:R:3:forces:R:3 Energy=-7373.62211207366
C		2.42993724		-0.05594781		0.11292845		0.5795605308904782		-0.1777372220941609		0.1130089810830699
C		0.9399989		-0.03528729		0.12466166		0.9810129837724445		1.0153876040754515		-0.194369173971262
C		0.27905075		1.18120817		-0.00642473		-0.5864124692891668		2.311241678246884		0.726599758724363
C		-1.13780803		1.2183975		-0.14403025		0.3547676993620824		0.9941920470005117		-0.18199044372308368
C		-1.90405129		0.06462399		-0.16605148		2.1605031986627923		-0.6252382861615083		-0.49471536198628646
C		-1.11257809		-1.15293666		-0.11579078		-3.876267469342453		0.7312796806274516		1.3642861949183498
C		0.21213789		-1.22717084		0.15319433		0.7862347987164977		0.6013887850217372		-0.5119830962434535
H		2.78315331		-0.47137268		1.08639284		0.2870025227650722		0.2570639295229789		-0.07785377387215311
H		2.6865368		-0.85961425		-0.6437045		0.47191497376451125		0.9261183894508959		0.23834275067081367
H		2.87005188		0.99221391		-0.07586267		-0.25956895529497054		-1.458273126661891		0.06315539438709616
H		0.80294935		2.23373586		0.19469501		-0.6409593476244647		-2.168910654450432		-0.8040519777108858
H		-1.63641791		2.19471603		-0.29228807		0.10088499573224245		0.0050272779349022625		0.29274708704901503
H		-2.99112427		0.1852092		-0.23705224		-0.12549009265757552		-0.6544096108098648		-0.09314556395782145
H		-1.71672003		-2.00746582		0.12398084		-0.49391574891527207		-1.3112238201037671		-0.419256519250431
H		0.69677021		-2.1814723		0.33921734		0.26073243087984344		-0.44590662017712585		-0.020774256117330737
15
Lattice="50.0 0.0 0.0 0.0 50.0 0.0 0.0 0.0 50.0" Properties=species:S:1:pos:R:3:forces:R:3 Energy=-7373.915458311993
C		2.48339294		0.10229367		0.11838266		0.27368801382452596		0.10492291318570944		0.42699363703204196
C		1.01602046		-0.09653116		0.05055444		-2.1268993436537684		0.11903991483276709		-1.8831317196612305
C		0.1629384		-0.07465518		1.16029788		0.7670645509930032		-0.6049497628460299		1.52999337976977
C		-1.2364394		-0.04555206		1.13309097		0.1646699504298486		1.0276718205728566		1.7794320859190171
C		-1.87499935		0.1585064		-0.06262981		-0.7229787713531974		-0.5677434324083204		-0.26225663223276563
C		-1.14765561		0.04135335		-1.22391933		2.5890738989279494		-0.1468224838406806		-0.046219229588572455
C		0.29179107		-0.13227485		-1.205044		-1.3387226935931735		0.12696384896723953		1.2408411062621363
H		2.69507644		1.14432241		0.38578607		-0.0714005621456604		0.7749193224534877		-0.3652156340095886
H		3.00552134		-0.35657738		0.96947468		-0.021188152297947807		-0.8825833400998723		0.09981443981420705
H		2.9770766		-0.1157996		-0.8337096		0.30230382593229277		-0.16069543637937586		-0.2312033629430594
H		0.67042217		-0.18535564		2.13760352		-0.16210080134598845		0.2502426900955697		0.11075988291586535
H		-1.83592907		0.07403186		2.08007333		0.6094240993434648		-0.442672789514106		-0.4914651276853469
H		-2.95753602		0.24495699		-0.1032115		-0.5004269647282024		0.23714379386285395		-0.03568475160997192
H		-1.68749701		0.13421016		-2.13917317		-0.32339350498065905		-0.1139937650009476		-1.3341335316302994
H		0.76675479		-0.38021124		-2.14738456		0.5608864546475123		0.27855670611884886		-0.538524593774265
15
Lattice="50.0 0.0 0.0 0.0 50.0 0.0 0.0 0.0 50.0" Properties=species:S:1:pos:R:3:forces:R:3 Energy=-7373.808128982451
C		2.47031374		-0.16782837		0.0417897		0.15911029988245673		0.6546058374001538		1.30928597968054
C		0.96972792		-0.14598959		0.09945967		-2.862642973522041		1.755390523376015		-0.7521887139704498
C		0.16937232		-0.68780888		-0.9955628		3.013176587609353		0.1681655708127742		1.1908259514459614
C		-1.16865532		-0.46477787		-1.17736051		-0.4318777559450984		0.31831619337899814		1.93558654280803
C		-1.81329176		0.18041791		-0.11530538		-0.31017875484125546		0.4123931651538797		0.6337306397742442
C		-1.15952806		0.66109845		1.05108558		-0.8786847764356304		-0.3501944782385665		-1.51015917037599
C		0.20969665		0.62722729		1.09446904		3.424304821449157		-0.9340573388276021		-0.8256884275492261
H		2.97412801		0.10368776		-0.90457235		-0.4296423874685665		0.05036760163217058		-0.31928097411458484
H		2.89444614		0.55636936		0.82534286		-0.29666688802504665		-0.9760013381445255		-0.5962663762713123
H		2.75644194		-1.20462956		0.25973208		0.6230966601048131		-0.2992709526893067		0.2900700030560835
H		0.7833902		-1.25308704		-1.6845501		0.09359118755096688		-0.4623605488740435		-0.835829989548687
H		-1.79440036		-0.89515991		-1.93515687		-0.17567946542131288		-0.2659098098150216		-1.0575844970954777
H		-2.87404519		0.35406629		-0.23641145		-0.8172134031715342		0.018349757295127427		0.23579519885318026
H		-1.72245831		1.08360456		1.86775403		-0.5035527062159636		0.5486900156107003		0.42751397688191956
H		0.82388158		1.22846907		1.82554706		-0.6071404455502973		-0.638484146648691		-0.12581009215216865
15
Lattice="50.0 0.0 0.0 0.0 50.0 0.0 0.0 0.0 50.0" Properties=species:S:1:pos:R:3:forces:R:3 Energy=-7373.688985117953
C		2.42882389		-0.12513173		0.25782596		0.10561222593278012		-0.6414778877021566		0.3126982816348565
C		0.95342522		-0.02818302		0.02281749		-0.1903002490141409		-1.5375790081554188		0.6165065114260303
C		0.230861		-0.82220605		-0.92646726		-2.122152264537127		1.323648315987521		1.2140602390306448
C		-1.24742166		-0.76699913		-1.01347004		2.4683800448787125		0.966873562106161		-0.9249738886070652
C		-1.83149941		0.19766355		-0.20003878		-0.5548462135045127		0.03161376977035301		0.22245477319316198
C		-1.08611607		0.85853522		0.81610788		-3.0848350828202356		-0.20552051101094865		-0.5087278740024567
C		0.23811205		0.67273663		1.01222387		1.174760979229375		1.0102892608502507		-0.09881026977878773
H		3.03242642		0.50048024		-0.34457759		0.7279148779713852		1.4632025484119608		-1.5848483276811738
H		2.79073297		0.19117515		1.2554904		-0.5076611747391045		-0.33120605892787636		0.3152299440351945
H		2.84575917		-1.1011639		0.01297489		0.07862078535557768		-0.8221381969359844		0.14375628910123037
H		0.78298107		-1.44693081		-1.57939597		0.7794507888622986		-0.9627244701536886		-1.056422667016603
H		-1.83237774		-1.16634988		-1.89833222		0.6905527901065309		-0.1592046593670427		0.9297727497405881
H		-2.9072886		0.4522042		-0.35631136		0.40482517453564926		-0.1252938660672867		0.2929100949869646
H		-1.70984129		1.4857593		1.44732639		0.044485123376751166		0.488311772550053		0.5568993421917406
H		0.73711529		1.24789177		1.832943		-0.014807805633939191		-0.49879462277795894		-0.43050519825432554
15
Lattice="50.0 0.0 0.0 0.0 50.0 0.0 0.0 0.0 50.0" Properties=species:S:1:pos:R:3:forces:R:3 Energy=-7373.711776226809
C		2.47214067		-0.23821801		0.14030874		-0.8568133791939804		0.4436158187172787		2.2206403750946992
C		0.91851956		-0.13179823		0.02160344		2.9464329102828066		0.9786183097464591		0.4691464613445532
C		0.13442851		-0.37904195		1.11037139		-2.2707262866687983		-0.41367362593081425		1.5852330675523847
C		-1.28890012		-0.20957076		1.12097286		1.961608471819901		-0.6627130911872414		0.5178680941799326
C		-1.85067168		0.10578587		-0.05606521		-1.8437497731835502		1.5753855369059826		-4.5422157281663385
C		-1.05054094		0.48661436		-1.22143845		-0.33130021272421256		-1.3328866494601412		0.08430354032046201
C		0.35418921		0.41179318		-1.12355911		-1.8187797338810474		0.04338993629080478		-0.21927365014414787
H		3.00169784		0.76091782		0.28879544		-0.6961950759082715		-0.5683788034118866		-0.13339556627163035
H		2.77720496		-0.8697146		1.06966526		-0.3615950580149225		0.5937140422018715		-1.4609123125948007
H		2.83408945		-0.63018822		-0.78433147		0.8172682190901003		-0.8162459999107629		-1.01869692232614
H		0.52343765		-0.78133001		2.02938603		0.8075362338180111		-0.23478573234532915		0.7088698429699436
H		-1.94203798		-0.43241829		1.95627392		0.040823975374816204		-0.1951987661046817		0.7199082057384394
H		-2.97213042		0.11393957		-0.24216714		0.928311694680348		0.0038272412636312135		0.47899162657608313
H		-1.47577507		0.53253683		-2.28331321		0.05433188269221682		0.5493936236911305		1.3850653361316128
H		0.95750859		0.76449838		-1.94057954		0.6228461318165828		0.03593810811163676		-0.7955323189829919
15
Lattice="50.0 0.0 0.0 0.0 50.0 0.0 0.0 0.0 50.0" Properties=species:S:1:pos:R:3:forces:R:3 Energy=-7373.230626297869
C		2.39842486		-0.11177412		0.17479476		3.0496046451319634		-1.156320719104345		-2.163567593630057
C		0.96589698		-0.15789828		0.06014192		-2.812251923429396		1.0140358723199685		1.4224380169413309
C		0.19619559		0.51919972		1.05965118		1.0906256404751695		0.5438084163787038		0.8959589898726652
C		-1.21697126		0.80312614		0.96681884		2.6603625666657305		-0.2760535829631677		-0.763913252740207