15
Lattice="50.0 0.0 0.0 0.0 50.0 0.0 0.0 0.0 50.0" Properties=species:S:1:pos:R:3:forces:R:3 Energy=-7373.555994456639
C		2.43972282		-0.21049433		0.18972704		0.22561589305988505		-2.067138628141019		-2.1933313518598387
C		0.99043668		-0.15458742		-0.02851385		-2.276692891418377		2.251843591118494		2.977053514339103
C		0.29744086		0.85732505		0.79658929		0.9912937452949432		-0.5642421555985259		-1.8754220098389027
C		-1.05500814		1.11198816		0.69596388		-1.0039639357930576		-0.6032698554880253		-1.6639931038530624
C		-1.87865291		0.24038354		-0.10963878		3.7487412172782557		-1.2148056532478424		0.16204608827154734
C		-1.26436673		-0.8672215		-0.79337158		-0.14786810005843032		1.2811169738733548		0.8475620873616239
C		0.1767679		-0.96848922		-0.76026708		-2.455356276279229		-0.6445860942666243		-0.16191053971494318
H		2.66355544		-0.85480475		1.04125129		0.272066007708834		-0.11625931822813446		0.6697212498116368
H		2.87410112		-0.77533588		-0.72195702		0.17257881790002474		1.1549243015765978		1.0025380020014674
H		2.71889504		0.81719319		0.35700973		1.196141244352616		0.6321645808624919		-0.03300777046116532
H		0.94010344		1.60178946		1.25449852		0.31556680996626946		0.34167152849867616		0.6182164492685026
H		-1.46878053		2.1001759		0.95394755		-0.07900187426035506		-0.19997998947078627		0.6901397681009754
H		-2.8925804		0.43641944		-0.19030094		-2.5974153287874104		0.3738177223035813		-0.2503255310381681
H		-1.9195614		-1.61838506		-1.3315503		0.7789020126118891		0.661796235813853		0.29367047302433374
H		0.58360031		-1.81196494		-1.24885578		0.859392658424142		-1.2870532910281538		-1.082957273991047
15
Lattice="50.0 0.0 0.0 0.0 50.0 0.0 0.0 0.0 50.0" Properties=species:S:1:pos:R:3:forces:R:3 Energy=-7373.704473031106
C		2.37719253		-0.00420693		0.17109616		1.166882193665729		-0.24919918218238019		1.325815447387189
C		0.93492938		-0.09189798		0.05820973		-0.4577644963548022		0.5892085439345952		2.3914411209195126
C		0.37622788		0.52437959		-1.03957155		-2.5145526860787104		0.07039634068817863		-1.423643504351221
C		-1.01511756		0.6386338		-1.17272483		-0.7172199631579574		-1.2254982026463979		2.603870340286089
C		-1.84266927		0.09135757		-0.11080992		0.4107512587000218		0.6055223475113511		-1.600384423985517
C		-1.26073086		-0.58868486		0.96495132		0.440481232634777		0.610036124730681		-0.45265622867154964
C		0.14882039		-0.57009866		1.1371469		-1.787796450018328		0.19109950213071825		-2.2823158939467008
H		2.72140123		0.86392331		-0.36588295		0.6961760497451668		1.1241054654695768		0.18527657062360972
H		2.85276975		-0.227167		1.1681623		-0.4176007802617754		0.6342156012451596		-0.43064779163348454
H		2.72858832		-0.77357028		-0.44526113		1.2205771626925062		-2.0164206365753508		-1.4156230510055403
H		0.88006498		0.90102045		-1.92190041		1.1244018622375078		0.1725597917369202		-0.11227025173398991
H		-1.48170903		1.09800669		-2.02761546		-0.2741127600603188		0.4581612689886252		-0.6410446568260604
H		-2.94360998		0.22309219		-0.17213124		0.2588557827109255		-0.2742376642499969		-0.033841784891955266
H		-1.94042878		-1.1237221		1.62081247		-0.11980327534975807		-0.05603888947712977		0.7802988415161359
H		0.53554546		-0.9542255		2.04564732		0.9707248174729539		-0.6339104113045506		1.1057253177355444
15
Lattice="50.0 0.0 0.0 0.0 50.0 0.0 0.0 0.0 50.0" Properties=species:S:1:pos:R:3:forces:R:3 Energy=-7373.642976835093
C		2.43895828		0.04383572		0.10790301		2.1511712770365228		-0.09173711366746219		-2.437987703357608
C		0.98368664		-0.04264485		0.00233299		-1.48919814932786		0.04568886243651823		2.5033651479070627
C		0.24842834		-0.1490751		1.18878163		-2.9174927792272003		0.31515347942833927		0.916246741857207
C		-1.20274127		-0.0852432		1.12934535		2.276136864657163		-0.7539512051607405		1.4520279686000492
C		-1.85516978		0.02074188		-0.05184446		0.18020517255912993		0.584063303788445		-0.1657580412711776
C		-1.16254705		0.14435687		-1.21820869		2.2122594016692188		-0.5566298905845306		-0.6483923039067157
C		0.23717696		0.05698084		-1.16807119		1.5607670158839018		0.04833936122316582		-1.7236413078931827
H		2.8309535		-0.69773095		-0.68311738		0.11118935998140314		0.7723624118204894		0.7431726780737777
H		2.78069574		1.08347264		-0.27700414		-0.10780116028692445		-1.1905126368194858		0.7288613524527415
H		2.92916835		-0.24756376		1.06900166		-0.47882177950382837		0.3643253124204217		-0.19814597019163496
H		0.63875746		-0.1978452		2.22000719		0.5552445802222714		-0.08230198796186604		-0.2819562700891278
H		-1.89900221		-0.19097603		1.96571011		0.511492838300106		0.047241705878222094		0.8323465047724984
H		-2.88677834		0.14345414		0.02865509		-2.4337982450861166		0.027405850978443967		-0.3538802574084125
H		-1.63662379		0.19665398		-2.1620885		-0.7975619477876826		0.22804126605714986		-1.430564759690085
H		0.96318609		0.04337376		-2.04413838		-1.3337925005121667		0.24251133158495256		0.06430622014460767
15
Lattice="50.0 0.0 0.0 0.0 50.0 0.0 0.0 0.0 50.0" Properties=species:S:1:pos:R:3:forces:R:3 Energy=-7373.476425202466
C		2.52748726		-0.02225688		0.1061117		-1.610679635107562		-2.128648259419574		-2.333696870163468
C		1.01098104		0.10117668		-0.06850412		-1.3748477723238588		-0.8705251235669114		-0.3803186537040226
C		0.24225207		0.74882404		0.95012827		-0.4353840721170125		-1.9458956378869359		-1.7616447831429094
C		-1.16515955		0.63125051		1.01865726		-0.18758891792762122		0.13002875815512863		-1.4984874934864258
C		-1.98115178		-0.00766181		0.02794139		3.1471658215919067		-0.998895211675825		-0.6108803207298351
C		-1.18281122		-0.72759407		-0.96317602		-1.145323853940242		-0.22108576362469778		-1.1332601352465999
C		0.23485639		-0.64491369		-1.08925439		0.36295877111095487		0.4304381438848977		1.2003198525689316
H		3.06425491		0.78105656		-0.38242762		0.7045555833528989		0.7629879641485778		0.25680039145294997
H		2.72860628		-0.31838518		1.11428227		0.6323415756014265		0.5605728314886623		1.3990627300614242
H		2.81743948		-0.97890506		-0.44293045		-0.03692268634126468		0.8067130180203345		0.10088196183055823
H		0.7179256		1.16477093		1.81481649		0.6985403847543099		0.6396138379385378		0.6869189986418164
H		-1.5074766		1.17365996		1.86893598		-1.3206326691354537		0.48084071251953064		0.9817239966298669
H		-3.07184198		-0.09912555		-0.06359641		-0.01838410723284046		0.21136920497134198		0.5588125000249943
H		-1.73541886		-1.41864156		-1.75586108		0.8942234438430954		1.3985009954512788		1.4192380219953997
H		0.72281074		-1.24252138		-1.93687845		-0.31002186612873683		0.7439844781735915		1.114529751845257
15
Lattice="50.0 0.0 0.0 0.0 50.0 0.0 0.0 0.0 50.0" Properties=species:S:1:pos:R:3:forces:R:3 Energy=-7373.236169556493
C		2.42947515		-0.29109177		0.1872444		-1.299263408333576		1.1634655575707185		0.4315732344913011
C		0.96160507		-0.0691573		0.0037129		-1.2081649566816766		1.5623133287236752		0.5137243501219546
C		0.29817559		1.22458875		-0.26347805		1.0819167999795416		-2.842461973739135		-0.03630927255836232
C		-1.07470753		1.31150001		-0.41026641		-0.9066413062807941		-1.4648459975276924		0.05101680517053443
C		-1.83842578		0.15137331		-0.12192638		2.659624762913775		-0.8133872417712145		-0.46877020611364556
C		-1.2187119		-1.09427317		0.19137763		-1.8657141415141003		1.5454736831363602		1.1377017158902574
C		0.13554199		-1.16842784		0.38438658		0.042927291994990166		2.709193625649992		-1.8150047374328597
H		2.57160152		-1.31163793		0.33850795		0.5239184654692338		-2.4391957104485575		0.5691062199072288
H		3.21813978		0.01129346		-0.44048129		0.8073239635442396		0.8441615463721583		-2.3601773811282203
H		2.75496229		0.23799157		1.05303643		0.2833297019549623		0.542342321956344		1.824983291494371
H		0.84060376		2.10539901		-0.50914997		1.1855000655944428		0.9667992572259286		-0.2679494144998267
H		-1.50848051		2.18116188		-0.9142902		-0.27274760714653795		0.3561601573910213		0.39196143139449285
H		-2.82930686		-0.029618		-0.3555509		-2.9204319100503504		0.6103395663211669		-0.4689727576176151
H		-1.92422193		-1.89067037		0.50303226		0.391191951652071		-0.1924301508405987		-0.32555595697264433
H		0.53556622		-2.07145849		0.67056666		1.4972302754817162		-2.5479280214422304		0.8226726264309717
15
Lattice="50.0 0.0 0.0 0.0 50.0 0.0 0.0 0.0 50.0" Properties=species:S:1:pos:R:3:forces:R:3 Energy=-7373.3350812997105
C		2.42965934		-0.25340315		0.25253245		0.10172821471221001		0.629289110552649		1.8531986800018816
C		0.98286994		-0.10291605		0.01070567		-2.0004270896035004		-1.5672620337471623		-0.8102889082427362
C		0.20224071		-1.1140373		-0.73276548		-1.471303477285368		4.532151967747355		1.7300756477227586
C		-1.20123648		-0.81229924		-0.82359207		1.586507717636263		1.125253360169529		2.5524305372298848
C		-1.89536359		0.15341794		-0.02270476		1.5650162265919538		0.40174051927578125		-0.8311915652499913
C		-1.08994304		1.13983241		0.65007674		-1.2281699901668974		-2.275551475898293		-1.300982447881101
C		0.29797733		0.99287373		0.60281078		-1.6852304156427078		-2.0556659032110534		-1.1677070035473414
H		2.89854607		0.69871838		0.01283295		0.7898513637902932		0.3424690332651304		-1.1651578576457722
H		2.58143918		-0.07149021		1.39201304		0.07307753844610569		-1.384364659108742		-1.0642733247120917
H		2.84767305		-1.16986137		-0.22455887		0.3193227802513524		0.4564871723236768		0.49512956669927827
H		0.60201989		-1.91211528		-1.29978928		0.8855863371245781		-1.1613455287802499		-0.6919183543968114
H		-1.81942672		-1.35171012		-1.44344152		-1.602284469192847		-2.034324101790521		-1.795826313601437
H		-3.00787149		0.15496051		-0.08920621		0.46922400581471974		0.294801604131929		0.1714917040778822
H		-1.59076957		1.93087093		1.19110426		-0.041410649685247346		0.6070487600129585		0.43885321013777906
H		0.75102468		1.68048965		1.21171276		2.238511958631154		2.0892721750570122		1.58616648082988
15
Lattice="50.0 0.0 0.0 0.0 50.0 0.0 0.0 0.0 50.0" Properties=species:S:1:pos:R:3:forces:R:3 Energy=-7373.6244609456235
C		2.39511123		0.05100023		0.11934152		2.090798793246869		0.04601400413735581		0.6449673888596514
C		0.91120413		-0.0855497		0.06504982		1.1415689635184705		1.4667668172482502		-0.8245503544632009
C		0.23560163		-1.26806555		0.21663518		-1.9697493042137648		0.799015392382681		-0.15249978806694583
C		-1.18039675		-1.1515734		0.13845351		0.10398466623434417		-3.591206540811166		1.614388502783446
C		-1.78023314		0.04773784		-0.02211419		-3.1210267531217872		1.4126242705899545		-1.6209504207499466
C		-1.1144639		1.24942641		-0.34960763		-1.4827961025535		-0.7828323551107218		1.5520886686713038
C		0.23184434		1.12253897		-0.2327003		1.7901210871952642		1.4496939211856863		-0.029150395868941536
H		2.69981264		1.06866288		0.54646726		-0.3467610785511989		-0.6529235132052141		-0.8150065225175968
H		2.84846322		-0.61510332		0.9327403		-0.2609374506428103		0.04289258210284002		-1.1207920848759552
H		2.92497534		-0.09620915		-0.9205044		-0.6948342424477357		0.10786158121029692		1.650331033192453
H		0.73024424		-2.17835584		0.45683238		0.5907989254818837		-1.1932275160283143		0.21740409821984735
H		-1.85902228		-2.06144989		0.43891643		1.1853998439947382		1.3410611118828444		-0.753179462847571
H		-2.90004949		0.037254		-0.09610862		0.48336903248580965		0.1090497908072057		0.35294005641867426
H		-1.68784318		2.20057482		-0.29828305		0.40943094582469264		-0.20089134268349298		-0.6003361754034948
H		0.83418385		2.05674664		-0.28549649		0.08063262212666258		-0.353898255130268		-0.11565454335172282
15
Lattice="50.0 0.0 0.0 0.0 50.0 0.0 0.0 0.0 50.0" Properties=species:S:1:pos:R:3:forces:R:3 Energy=-7373.472336796382
C		2.51147904		-0.02519372		0.25146599		-2.8373496437129493		-0.017226236652774035		-0.570021892573181
C		0.98130433		-0.02344368		-0.01677754		-0.35884536606981904		0.09571589574911782		1.1619343628173038
C		0.14797609		0.89700926		0.70467602		1.0878891640001143		0.618398277681307		1.0828850774153747
C		-1.24769167		0.88846315		0.78525581		0.9786126018975277		1.2620877768671461		0.25427006602623553
C		-1.86966267		0.01480757		-0.07390642		-2.509624961256701		-0.3363239939588686		0.41771216044903053
C		-1.13170329		-0.76032369		-0.90739011		2.9595519125419374		-2.936441963504246		-1.0195600930663362
C		0.29436778		-0.97092956		-0.81195411		-1.3620364282643338		3.5830515673501298		1.278952259310622
H		2.67760101		0.90823559		0.77968112		1.0091729392966393		0.45277974446554164		0.05571395346454196
H		2.77539866		-0.89102875		0.82347279		0.16126760966819761		-0.8812342822916366		1.3442164210565113
H		3.02618327		-0.25928686		-0.66156685		0.8646060328030315		0.6954154660195478		-1.156362936617612
H		0.58105957		1.65945503		1.39635603		0.46344313755469096		-0.3390384617911973		-0.428280628410907
H		-1.71523164		1.68032085		1.43356158		-0.059686667742829116		-0.8825449278192259		-0.395636360509163
H		-2.95049983		-0.24950555		-0.02931292		0.13737851354034397		0.7181568217136367		-0.16675964020347472
H		-1.58276453		-1.48199889		-1.56563069		-0.9316466725401965		-0.45019845977494466		-0.5500191730807699
H		0.92913595		-1.60796078		-1.35804736		0.3972678282843447		-1.5825971726314716		-1.3090435760781758
15
Lattice="50.0 0.0 0.0 0.0 50.0 0.0 0.0 0.0 50.0" Properties=species:S:1:pos:R:3:forces:R:3 Energy=-7373.571947407523
C		2.49796275		-0.21231174		0.13222211		-0.25223411230786413		1.8804449683205593		-3.112743327348765
C		0.98805801		0.01503269		0.09487536		-1.079495592169335		-2.007690198813496		-0.41235742682048077
C		0.29917771		1.21224331		-0.14089599		0.7990860977185424		0.3236917015207757		0.8193803803050149
C		-1.09653522		1.25688258		-0.16338226		-1.8910069571025683		0.30970387209457906		-1.5414219331480956
C		-1.88534069		0.10313907		-0.18056832		2.326363107039673		-1.1414144402208244		0.6433372580580933
C		-1.24472607		-1.16133857		0.06816441		0.8351213935281998		4.207000393873776		-0.3295048114139572
C		0.14351462		-1.16440121		0.23036573		0.7559336285121071		-0.8999702192757233		-0.08943839320999851
H		3.08794812		0.73652351		-0.21418118		-0.6988300452320606		-1.0544659546964585		1.4756976467874516
H		2.69908225		-0.71052451		1.04611421		1.0814561611441624		-0.24070256053846162		1.600342155050187
H		2.85974113		-0.89650749		-0.69087062		-0.6446439440868745		-0.0810383936214134		0.3904195922741522
H		0.89823066		2.12745204		-0.19408357		0.0074064739200918285		0.3388736026589998		-0.19155016508598324
H		-1.75347293		2.11415105		-0.47257711		1.1745347735766811		0.2968007910756525		0.46419153425151055
H		-2.91526089		0.16296519		-0.46430752		-1.1626522148090312		0.015903661206697357		0.07128326842122414
H		-1.92859983		-1.9268882		0.13376694		-1.214357612817762		-2.9078758251088		0.18117926068801918
H		0.60206198		-2.19280125		0.37089669		-0.03668115691396211		0.9607386015241384		0.031185012613689427
15
Lattice="50.0 0.0 0.0 0.0 50.0 0.0 0.0 0.0 50.0" Properties=species:S:1:pos:R:3:forces:R:3 Energy=-7373.663213787809
C		2.49846992		-0.05982908		0.09547222		-0.8595336062973029		-0.6272044087190799		1.8302149721274912
C		0.95070961		0.05824575		0.161344		1.4303927014691453		0.13171514469300127		-1.8252982516268448
C		0.08900307		-0.53014549		1.06207222		0.6551614527848681		-0.6716940572373262		1.5504636286539277
C		-1.30906136		-0.54743653		0.97069993		1.1204403065467712		0.7881471337967523		-1.045715719440563
C		-1.9122004		0.06942072		-0.12601687		1.465380786977117		-0.5856662837410324		-0.3240469765502058
C		-1.01077664		0.43774415		-1.1611087		-1.6509043891887107		1.7165564275516199		0.30918209242695305
C		0.33926541		0.59014728		-1.00379771		1.7714055647699678		-0.5789826497527251		0.42092002297051584
H		3.02970755		0.87739281		0.26147649		0.08884076600026668		0.7816400317488176		0.06075357269443095
H		2.89778109		-0.74581734		0.89336687		-0.2860379477177352		0.20670404120017502		-0.31209196409657153
H		2.85964312		-0.45007121		-0.85623093		-0.10457941380857909		-0.24378433616283254		-0.6016363308303457
H		0.49798945		-0.99955633		1.97632587		0.1826291571607088		-0.13079479261936675		-0.17132396531018773
H		-1.70535031		-1.158662		1.72999541		-1.6855171964849611		-0.4878888775085081		1.346835038164443
H		-2.95948909		0.31368376		-0.22227845		-0.8050916803914543		-0.38740466533095924		-0.1403620216033832
H		-1.44271717		0.9086735		-2.0226344		-0.5553026871528339		0.3126934993830492		-1.0407366754002336
H		1.04782577		1.03930954		-1.74340556		-0.7672837632452048		-0.22403620730158505		-0.05715742217942604
15
Lattice="50.0 0.0 0.0 0.0 50.0 0.0 0.0 0.0 50.0" Properties=species:S:1:pos:R:3:forces:R:3 Energy=-7373.269702207125
C		2.4292812		-0.18839929		0.2348916		0.9866956873152665		0.7788609263839958		-1.475941130253127
C		0.96508264		-0.07765931		0.18531999		-1.7750416702274923		-0.8278031598672629		-2.772306288303197
C		0.2875829		1.15196187		-0.21899034		3.956242043336011		-0.7415465067710276		0.4791095373652687
C		-1.05396272		1.26133022		-0.34956473		-2.0691485622957937		0.9713960296540441		0.39591095432261747
C		-1.90240624		0.18340633		-0.08367999		3.6331981055358504		-1.255508478243539		0.1262297476037795
C		-1.22106139		-1.03787445		0.13295578		-1.2106745075951633		-0.9265573795979857		-0.13851314134818543
C		0.16713138		-1.26500562		0.12344122		-0.1310799793776848		1.6911010154017023		0.6259341809325719
H		2.91448829		-1.1638798		0.33770626		-0.3211852359310356		-0.6799015840461811		-0.5129729195234507
H		3.00238136		0.46851726		-0.49621388		-0.5509587570057588		-0.6350838113474753		0.2167034211969764
H		2.67705714		0.24340265		1.14904089		0.9548992149570474		1.3247181519966822		2.52634268513396
H		0.99495617		1.94816776		-0.60413399		-0.7317683444868632		-0.19627338436565023		0.7645128854103743
H		-1.48795791		2.24816868		-0.5200018		-0.1156714612102671		0.3368066414369742		-0.6232554514336422
H		-2.89254047		0.09023895		-0.39058942		-2.49651228391125		0.38689707815256796		-0.022222249973709942
H		-1.90015359		-1.88731585		0.26483176		0.010176837534297928		-0.5427398144990413		-0.24456338040886919
H		0.60450332		-2.27689553		-0.03036859		-0.13917113805922735		0.31563422429013444		0.655031200700696
15
Lattice="50.0 0.0 0.0 0.0 50.0 0.0 0.0 0.0 50.0" Properties=species:S:1:pos:R:3:forces:R:3 Energy=-7373.485340689624
C		2.44325562		-0.15149773		0.17513526		0.1594153355568785		-2.3339009129072483		1.1417682240104434
C		0.91222577		-0.11299863		0.09374796		1.8402525072946263		1.0933427822547452		0.33387820640281324
C		0.15787508		-1.2290336		-0.2021184		0.359400672922159		-1.2045363074232065		-0.146971710665895
C		-1.22381961		-1.08246865		-0.34123161		-1.6912317817064988		-0.7506180270730778		-0.7272180061811351
C		-1.85862517		0.15429179		-0.18016864		1.961822850398233		0.5901885456006656		0.29843045907864874
C		-1.01551023		1.28283823		0.0826726		-4.692869412769458		-1.6947758416722474		-0.1390618661765324
C		0.25244901		1.15083818		0.32461182		5.866446810387544		-0.5673984932134417		-0.24183266320480792
H		2.96917023		0.41933561		-0.59308126		0.05224455833346314		0.5170602021568645		-0.3171294235998378
H		2.69197188		0.22190533		1.18845115		0.3976525681555558		0.34387475818618013		-0.09724241109485002
H		2.95421872		-1.22850623		0.16327359		-1.2803979905962535		1.6504664789049317		-0.1616039099565857
H		0.63180623		-2.2650144		-0.27685966		-0.39575920781634333		1.1767918421635646		-0.16519275853872345
H		-1.82240071		-1.96515839		-0.70874607		0.27411337712506817		0.49174357815348474		0.670718117914189
H		-2.90615481		0.30018112		-0.0631042		-1.4351644117536977		-0.12316751236313755		-0.501453709049035
H		-1.34030565		2.25118341		0.29911449		-1.6909453608186822		1.9341041990139378		0.10576752056136302
H		0.77967733		2.12463451		0.55589907		0.275019536709468		-1.1231753432040776		-0.05285617234417993
15
Lattice="50.0 0.0 0.0 0.0 50.0 0.0 0.0 0.0 50.0" Properties=species:S:1:pos:R:3:forces:R:3 Energy=-7373.545123276296
C		2.46941887		-0.29785311		0.08841155		-1.0199276579686904		1.353543303320661		2.7609860812104423
C		0.93204241		-0.03399012		0.13642023		2.961874492836376		0.6797527685974663		0.4445550426878304
C		0.21506217		0.62496171		1.13327658		-2.496299653683041		0.37455151513466656		0.40706249705055386
C		-1.23971583		0.65096614		0.94296862		4.772341387524682		0.18564331277296503		0.357235135606427
C		-1.83484094		0.18022622		-0.18297766		-2.9261136879960485		-0.5464163891197097		-0.28210241159059557
C		-1.16052774		-0.48977322		-1.18097671		3.6374228393421792		-0.1613972446876206		0.5267142315822876
C		0.30161754		-0.54288881		-0.96256645		-3.6221572745083574		-1.5241902971787649		-2.3399821374340166
H		2.61494482		-1.30422567		0.40616001		0.1950256280204305		-1.6597205475286607		0.509187484396587
H		2.86832064		-0.26600008		-0.8822244		0.6402469463713564		0.4151322127320571		-2.0259709991228854
H		3.14522246		0.28049293		0.79235071		-0.7744884055702013		0.028398193939501038		-0.504989181530355
H		0.61231821		1.12493997		2.06706741		0.03830779101527406		-0.6490103970973004		-0.8766910916525883
H		-1.79137029		1.03631581		1.73119877		-1.5531429237955443		1.1250672637255419		1.7807027765040875
H		-2.94928115		0.25369736		-0.11798339		0.34349022400321894		-0.1696413325828735		-0.6262174650745796
H		-1.59718957		-1.04816042		-2.01600009		-0.21458303245207083		0.23199742243132984		-0.1410194526717382
H		0.87382215		-1.16796331		-1.67666965		0.018003275438375304		0.31629016411867855		0.01052949003854341
15
Lattice="50.0 0.0 0.0 0.0 50.0 0.0 0.0 0.0 50.0" Properties=species:S:1:pos:R:3:forces:R:3 Energy=-7373.684506003587
C		2.48545085		-0.02919711		0.04659071		-0.5990586971061822		-1.3133422548102995		1.2294231972507363
C		0.95989256		-0.07471053		0.12342488		-0.9144343198442826		-1.057636124846172		-1.3901350372680321
C		0.11674319		0.1393715		1.24425999		2.1583669205005918		0.47955428678335255		0.7660896401111149
C		-1.24804063		0.30089091		1.15936732		-0.510769381303572		-0.501793248927357		-2.678120918820682
C		-1.81977535		0.18779462		-0.15237169		-1.8558473275942808		0.8315175811258905		0.8961820587795499
C		-1.0985133		-0.08693818		-1.31360839		1.5828148936438622		-1.2283183428170503		1.4294316231220545
C		0.27321948		-0.43632353		-1.08659891		-0.8411541784721448		2.1780617246830842		1.1338623904419516
H		2.80935406		-0.15713366		-0.96399232		0.18995978353869478		0.030378560408369813		-1.4403635936433523
H		2.99932797		0.85305871		0.41582617		-0.11726066005011936		0.8501564846781442		0.4401087312144279
H		2.99348288		-0.88283578		0.55185722		-0.2303050195121512		-0.013007005007127167		0.33183690478994754
H		0.67581532		0.20160718		2.18902291		-0.2511736351140679		0.336754345199468		0.4016766016521626
H		-1.95292385		0.57539214		1.92771562		-0.03701097802248216		-0.05956741998001996		0.9785518724417805
H		-2.94022188		0.35008488		-0.15495877		0.834085958878814		0.01301903776973922		-0.44169870138521683
H		-1.49240151		-0.14213671		-2.32960737		-0.43842620133123866		-0.1565380140527875		-0.11205998692065369
H		0.85212891		-0.80742293		-1.88615436		1.0302128417885594		-0.38923966162929696		-1.5447847817657894
15
Lattice="50.0 0.0 0.0 0.0 50.0 0.0 0.0 0.0 50.0" Properties=species:S:1:pos:R:3:forces:R:3 Energy=-7373.233409716174
C		2.35866483		-0.34624227		0.07858079		1.0580206076070708		0.08381199682555351		0.9343888054421204
C		0.96338436		-0.02021009		0.07959048		-3.202178840923266		0.8119496351714489		1.95943748376555
C		0.39758033		0.10206811		-1.17322558		-3.440196295627054		0.7476031001298848		1.7157339830848803
C		-1.01876158		0.28469045		-1.2808157		0.15472019272330628		0.11328167228021396		-0.4231718979290924
C		-1.81274675		0.28922024		-0.09450878		-0.7799859896882224		-0.2308807923453441		-2.2617869724892934
C		-1.23934749		-0.08773165		1.12559927		-4.125542087690439		0.023703462482428394		1.2089099081003123
C		0.09356083		-0.11914439		1.28236251		3.307517244373528		-0.4336578849028077		-2.4727578107428765
H		2.83097451		-0.18059763		1.05039028		0.437763268102202		-0.21418826527868315		0.3291386863293512
H		2.1745979		-1.38965153		-0.14147585		1.4488824810403091		-1.2505022319321768		-0.1890696676377777
H		2.88025978		0.19758641		-0.7076984		0.5339188739072841		-0.06319303533680565		-0.416077710194227
H		1.0289533		0.13641201		-1.99852569		1.2605413097611853		-0.07847788344404395		-2.1165596524477084
H		-1.42940266		0.35524619		-2.34891407		0.07196239959993077		0.21982736291255198		1.3948523430105177
H		-2.92797761		0.48152038		-0.16805913		0.9619876948429814		-0.3761529010033181		0.027502215923465266
H		-2.06015587		-0.40474695		1.91521135		1.8663691043234578		0.84082636282406		-0.7950205666175426
H		0.57317533		-0.4177683		2.1902595		0.44621998622566367		-0.19395064980502488		1.104480800980259
15
Lattice="50.0 0.0 0.0 0.0 50.0 0.0 0.0 0.0 50.0" Properties=species:S:1:pos:R:3:forces:R:3 Energy=-7372.607745506287
C		2.42769175		-0.30966701		0.09484301		-1.5801876890515019		0.18339663144269536		2.169716181058628
C		0.97723969		0.01459696		0.01442719		-1.856170309568496		1.2276599861515716		-0.9942142099094252
C		0.27911354		-0.26244125		-1.21896362		-1.7724429020356638		-1.797450890820251		1.9881297090581094
C		-1.16544351		-0.36524019		-1.18683172		3.528786327650841		1.8721147998927747		2.826520877270978
C		-1.84786429		0.05292132		-0.05099648		-0.8254745631915187		2.6687240511295447		-0.0007757018119777081
C		-1.1503164		0.42911893		1.13676941		-1.6292474733695175		0.007459181534097605		-1.3313895475341275
C		0.20071439		0.49894815		1.18492216		2.592212341665135		-2.265833374583064		-1.2247168444075511
H		2.3178381		-1.39591768		0.13047286		0.9639572112566744		-0.7237898001220745		0.4754611934568824
H		3.07732611		-0.04950275		-0.69498022		0.8633310741867783		0.6531423140809162		-1.585171463921576
H		2.73501854		0.16703346		1.04499024		0.7517413420271813		-0.5601808411066467		0.0717414904196685
H		0.66287729		-0.87379938		-2.05608457		0.9472802136528721		0.6527193676173089		-0.012603187550749247
H		-1.62467659		-0.58774607		-2.06317961		-1.9841893906791623		-0.7884450732265565		-3.1528370580148035
H		-2.73418922		0.76175227		-0.22481689		-0.2106979927902518		-1.9425575747033406		0.34704235723277127
H		-1.75364696		0.74197418		1.97655622		-0.35660716937985276		0.3196380489162006		0.6665534964988584
H		0.64249093		0.54344139		2.19554354		0.5677090310485449		0.49340322521888613		-0.24345734326774698
15
Lattice="50.0 0.0 0.0 0.0 50.0 0.0 0.0 0.0 50.0" Properties=species:S:1:pos:R:3:forces:R:3 Energy=-7373.467615776137
C		2.45646911		-0.20950932		0.29162163		-1.0173643195778865		0.5257012683741902		0.4520465686992057
C		0.9403793		-0.09991657		0.0487427		1.8571023344503057		-3.1078188935387514		-0.2901927475191389
C		0.22775675		-1.22802328		-0.39608815		-3.138294950177516		3.031278027764935		1.4612815744252157
C		-1.20476534		-0.99976801		-0.33943762		0.6851321848159895		-1.9919366900291375		-1.01451085791077
C		-1.90994837		0.16682027		-0.07281785		0.43116134377111937		1.0609991791521152		0.10564061091124957
C		-1.09426892		1.31953715		0.23374866		-1.0873109743299867		0.13854240050171646		-1.7649511189139764
C		0.27024059		1.0723617		0.22666741		0.4866428695134114		2.7705691481896912		1.0712682678664387
H		2.89669032		0.37879668		-0.5417421		0.7381678715801637		-0.04520595784810042		0.5021450786786034
H		2.68535818		0.14060317		1.34009633		0.09185379032714912		0.4882065630102911		-0.804883832415053
H		2.82518126		-1.24635903		0.34026588		-0.07908790337082497		-0.24757316514581762		-0.6070882007348536
H		0.64175154		-2.1552763		-0.68444314		0.6679491426956689		-1.4323106929762686		-0.3187983266364793
H		-1.84939295		-1.83429248		-0.63604791		-0.05645186006062284		-0.432971348947109		-0.07336323942504822
H		-3.02116808		0.08292529		-0.2428789		0.7737997613099425		0.6332982830732093		0.45418865755446286
H		-1.35704297		2.43296944		0.10563494		-0.33857782295581806		-1.5032780242458328		0.7182636253373342
H		0.92196562		1.94560592		0.40994737		-0.014721416569032161		0.11249990266486777		0.10895394008280884
15
Lattice="50.0 0.0 0.0 0.0 50.0 0.0 0.0 0.0 50.0" Properties=species:S:1:pos:R:3:forces:R:3 Energy=-7373.589827154082
C		2.47179302		-0.14209198		0.32018908		-0.4379423197236343		-1.7209129046819318		0.8064189866672758
C		0.95650305		-0.11632776		0.07568241		-0.7212966528465077		0.8561078684972396		1.0571578482433743
C		0.23864207		0.72050502		0.96266546		-0.7715236665599545		-1.1774910279466244		-0.8317129335411176
C		-1.15066775		0.7130536		0.93999631		-2.404221200365072		-0.255289971212763		-1.4841874807191275
C		-1.90337467		0.0675597		-0.15007635		1.6257208969050003		0.5719876551763154		1.355296898494149
C		-1.146287		-0.54891212		-1.21097671		-1.728528152175549		0.8890535725290339		1.2269626515627592
C		0.21399063		-0.71844497		-0.9915521		3.1921115838040377		0.02509684610849137		-0.23562848852673474
H		2.84012511		-1.19466432		0.68625076		-0.46159384592299363		1.325790044888341		-0.9193215755031477
H		2.90982297		0.14258763		-0.63423537		0.9721243717465102		0.0009489427403537703		-0.3675139430905527
H		2.8068077		0.53449343		1.1651398		-0.45430250600071537		-0.17663077357653914		-0.8197522132385522
H		0.77620329		1.33537242		1.64469407		0.5959081187622602		0.6770005055492405		1.0816688427944336
H		-1.78291773		1.31003318		1.65171619		0.6085030273609559		-0.3746897376385177		-0.2020503445489332
H		-3.02234605		0.09264718		-0.04338331		0.734427070803502		0.027054226915447385		-0.6266550668259836
H		-1.70139316		-0.7293561		-2.15556001		0.4783721964118747		-0.6205952338771926		0.20660423097696995
H		0.97976439		-1.19608899		-1.66958826		-1.2277590250438397		-0.04742996204883199		-0.24728741274481264
15
Lattice="50.0 0.0 0.0 0.0 50.0 0.0 0.0 0.0 50.0" Properties=species:S:1:pos:R:3:forces:R:3 Energy=-7372.728906096873
C		2.40044128		-0.1101098		0.16719108		0.8774505440928333		-2.2722011742638357		-3.958248686478789
C		0.90451615		-0.14390756		0.05683853		1.2408291249215866		2.8990755561861454		-2.1192809079922803
C		0.11692138		-1.04401058		0.74464344		-1.2282403869703842		3.233098618538866		-1.6401479735885989
C		-1.26442674		-0.87890222		0.70589723		-1.2818826998052182		-1.7423688116590288		-0.6086593504307878