15
Lattice="50.0 0.0 0.0 0.0 50.0 0.0 0.0 0.0 50.0" Properties=species:S:1:pos:R:3:forces:R:3 Energy=-7373.669211397626
C		2.45957694		-0.20244377		0.17102645		-1.6475768675279165		-0.45095477546938056		3.0722688677323844
C		0.93814869		-0.12645822		0.07076579		0.9502266978309512		1.0514021767939434		-1.513352069077304
C		0.37502361		0.65631095		-0.9826042		0.16284107335694178		-0.44860987799984164		0.15650885774338139
C		-1.0019177		0.84683253		-1.01223557		-1.0089752728886023		0.5903704254355323		-0.9814389641377361
C		-1.87508881		0.24098761		-0.10372368		0.06324970244961967		-1.5676383404001324		0.36775197581760904
C		-1.33061311		-0.6192777		0.85941781		3.5942194108718613		1.2429010740836692		-0.9853127423678797
C		0.11300652		-0.77214377		0.97991935		-1.6300803050928716		0.6538894252261747		-0.583836069694502
H		2.68906275		-0.15548561		1.31517834		0.1529356414682268		-0.8140866846645867		-1.5901304019354894
H		2.84906894		-1.02262377		-0.39924875		0.5588487011569552		-1.4933622051005038		-0.025716224850637306
H		3.00664037		0.60909792		-0.20092567		0.6220640022467995		2.2137304840316356		-1.0302201951434888
H		1.01720904		0.99780298		-1.82918488		-0.22544229217707182		0.2321660353740859		0.5712281513140077
H		-1.5074962		1.46929228		-1.77643437		0.4501531055158684		-0.06139274893061808		-0.18454653160308288
H		-2.97499366		0.14832698		-0.24473375		0.30528980225432933		0.812567265563472		0.0446681344969917
H		-1.91242516		-0.98405953		1.62361477		-1.9057254426140409		-1.5342212503219075		1.990941518854646
H		0.66835239		-1.34485332		1.72018829		-0.4420279568510499		-0.42676105504360495		0.6911857442731624
15
Lattice="50.0 0.0 0.0 0.0 50.0 0.0 0.0 0.0 50.0" Properties=species:S:1:pos:R:3:forces:R:3 Energy=-7373.729659887752
C		2.45580137		-0.11714677		0.25151778		1.079178626576426		0.6826716391280124		-0.9330163505954725
C		0.96957609		-0.10711119		-0.03087012		-0.5374080151103418		-0.061670376645756794		-0.30222849261081136
C		0.18498519		-0.88455151		0.81090514		-0.751717482190207		0.25751114720006013		1.094708809343588
C		-1.2490075		-0.7224117		0.85141318		2.5759838987120376		0.031379285165605356		-0.4469119729199814
C		-1.8351768		0.17532021		-0.02667063		-1.1120577904594173		0.24061874257667681		-1.0807435542028045
C		-1.10781057		0.91789207		-0.97866304		-0.6122725730705243		-0.9049996569372484		0.6929816083819796
C		0.25065543		0.72098582		-0.93674465		2.7375192116373213		1.6104146057977224		-1.7745859679101077
H		2.59217603		-0.32378316		1.32646365		0.07244494423391147		0.03581592929126825		0.17271374939187956
H		3.14186656		-0.89095469		-0.27164443		-1.0456072188888048		0.9195428446378473		0.18803521000757845
H		2.86797844		0.93259988		0.0713384		-0.07691393283685204		-0.9886929202206169		0.01849677297165671
H		0.81166226		-1.43973293		1.56539196		-1.1070413625796909		-0.11433248212627059		-0.2722394029033974
H		-1.73171225		-1.26991374		1.62415703		-1.1689870015257138		-0.6627839507892901		0.7257970089075395
H		-2.90364049		0.29769239		-0.21717697		-0.6364857310359041		-0.2631979645078776		0.9068563533459376
H		-1.66891339		1.55863365		-1.70671464		0.6784404775638785		-0.2814826728940125		0.3797288426477823
H		0.83459166		1.33949855		-1.68671903		-0.0950760510261189		-0.5007942725202446		0.6304074375666954
15
Lattice="50.0 0.0 0.0 0.0 50.0 0.0 0.0 0.0 50.0" Properties=species:S:1:pos:R:3:forces:R:3 Energy=-7373.509367670188
C		2.3980937		-0.02687119		0.16799621		0.10013243384836484		-0.5780509334032903		-1.759339943460015
C		0.90502511		-0.08091051		0.11486122		0.5117899549769113		1.7600467397083168		0.23601492532600635
C		0.22255507		1.16093861		0.09159464		3.6039174575827366		1.2039210938681186		1.1248705743366911
C		-1.1072041		1.31555522		0.12640383		-3.8188230606325226		-2.0576234897062595		-2.155574548243659
C		-1.77931155		0.065325		-0.21303763		0.09745653256286958		0.9640270424174743		1.5272380828198602
C		-1.12425622		-1.1944641		-0.21041148		-4.677485577192013		2.580090156086493		-0.6033505367040009
C		0.17694827		-1.2405308		-0.03885818		4.668696775389284		-2.359836144321838		-0.27281892954714876
H		2.71681055		-0.12021376		-0.91288399		0.25241311250723397		0.36451068895553473		0.4612985290183739
H		2.85631059		0.86591469		0.60688591		-0.10003612032540599		0.33460109775666025		0.1206922085432389
H		2.83630634		-0.91298634		0.60612675		0.28492080341112497		-0.718454863987566		0.6724373631499637
H		0.87594586		2.06419841		0.13661397		-0.15324792765345321		-0.22210191500066662		0.12717956451919485
H		-1.70477739		2.26967458		0.0715495		0.731894945604602		-0.5880334983856723		0.26235474552791005
H		-2.85484722		0.08402727		-0.33487008		-0.7248823646828363		-0.03252152343868861		-0.12738083047160326
H		-1.77020066		-2.02004602		-0.38543883		-0.4966779364215495		-1.3619233511490176		-0.3085764947975423
H		0.71645154		-2.21796432		-0.24662337		-0.2800690289753463		0.7113489006004007		0.6949552385606681
15
Lattice="50.0 0.0 0.0 0.0 50.0 0.0 0.0 0.0 50.0" Properties=species:S:1:pos:R:3:forces:R:3 Energy=-7373.5449817493445
C		2.52331951		-0.24732835		0.21064419		-2.5115634187446774		-0.8251212936225241		1.5907522489366328
C		0.95568136		-0.23405969		-0.03017147		0.00518468086804537		2.0714891403120874		-0.36090795641653683
C		0.37794918		0.77054772		-0.91043558		2.8633908559982366		-1.2057966107516627		0.8905346307715652
C		-0.97183207		0.99030507		-0.89514289		-1.3493254600707005		1.7088792678948197		-0.7763061240555578
C		-1.87736277		0.31564515		-0.06569012		-0.35853066304765774		-0.48990354249302737		0.13900972420521354
C		-1.34356258		-0.72719184		0.79190235		-0.7067947570620519		2.8274409722342995		-2.4393597982498187
C		0.02555457		-0.88398305		0.83582236		2.0218129083094856		-1.1843446118513112		0.30660929237665935
H		2.4494348		-0.56574268		1.35247697		1.2662393885006782		0.860184712451977		-1.7857674382783868
H		3.01244697		-1.0697655		-0.35762461		0.0664545310694207		0.18781620344362662		0.07734073595514274
H		2.98073162		0.76273193		-0.03386255		-0.27262136598323633		-0.8879107171912015		0.5140033148107168
H		1.09715177		1.44842652		-1.4699513		-0.7909695879602148		-0.69588500087173		0.22006189893936212
H		-1.30948063		1.8544737		-1.53637834		-0.14642560836273275		-0.6510968472809925		0.44260563230055333
H		-2.95845024		0.69984539		-0.15146449		1.1580874269037562		-1.0539130646810537		0.4740379850346015
H		-1.99944275		-1.35050228		1.32365885		-1.111140935086029		-0.9861885629354373		1.3563376296159664
H		0.42466839		-1.58684354		1.62541518		-0.13379799533232226		0.3243498010759424		-0.648951724524051
15
Lattice="50.0 0.0 0.0 0.0 50.0 0.0 0.0 0.0 50.0" Properties=species:S:1:pos:R:3:forces:R:3 Energy=-7373.2155286997395
C		2.4422198		0.17152987		-0.04706669		-0.41871046836933123		0.5228433844097033		0.22371219688612126
C		0.96275469		-0.05666214		0.07490678		-0.11799594412101555		-0.1967441533473311		-0.8268717006281402
C		0.30244819		0.0170944		-1.17904901		-3.373558753437394		-1.259463246222033		3.1988458685238528
C		-1.13387728		-0.08314099		-1.22422866		-0.24827579620706147		2.9651200477296324		0.02336906481035076
C		-1.90014445		0.10841732		-0.03179657		1.5919126391977587		0.21727379471361258		-0.0683658377084263
C		-1.1856857		-0.02615007		1.18091221		-0.3107583329070692		-0.2526930027931203		-0.7603863163212528
C		0.18938711		-0.2462995		1.25466616		-0.4136937833792925		0.8561646384541783		-3.3698836186344736
H		2.8383684		1.08671371		0.42374918		-0.31609224060032903		0.47171442772097716		0.048792800969802846
H		3.09684921		-0.56989531		0.3405389		0.752026734473749		-1.5887743507267609		0.7832258881546107
H		2.63640034		0.20644468		-1.11223995		0.5202192651410898		0.27423966971043223		-0.6932247833152804
H		0.82498878		0.01404867		-2.06806281		1.5314892475662851		0.312548232056643		-2.3863820641500197
H		-1.63162126		0.39400054		-2.11618957		0.28267617896335306		-1.183778506365858		-0.025077100036512617
H		-2.89210715		0.61746506		-0.01948901		0.15053063160768998		-0.7937495160780355		-0.20394869282820274
H		-1.70064832		0.14609989		2.09365469		-0.8451211849015006		-0.08330574662078584		1.3819939477638559
H		0.67550709		-0.52082019		2.12099466		1.2153517555510047		-0.2613956726412547		2.6742003979357762
15
Lattice="50.0 0.0 0.0 0.0 50.0 0.0 0.0 0.0 50.0" Properties=species:S:1:pos:R:3:forces:R:3 Energy=-7373.6000721501505
C		2.43634369		0.01120591		0.12576699		-0.5849915234376335		-1.99227813252377		-1.9810021998267797
C		0.92426619		-0.08402393		0.03533255		1.493362307944629		-0.6964794399135903		1.0312307415146515
C		0.367475		0.59323969		-1.01207555		-0.9809111166667418		-0.5288769406845851		-1.377004773577225
C		-1.01577951		0.64873318		-1.10579332		-0.19497559435367184		0.6348373454021781		0.44618584197620037
C		-1.82755833		0.090746		-0.12404886		-0.34242676432980096		-0.30028797824033715		1.2714172302344184
C		-1.31684556		-0.57464446		1.01506274		1.515939832947769		-0.5842867840718294		-0.7045104862041349
C		0.11033559		-0.70518926		1.03506089		-0.2505209348754578		-0.01888578087405057		1.345822846287282
H		3.02417824		0.432786		-0.71366257		-0.7417178965051557		0.12036526707021575		-0.5134989672222596
H		2.63714653		0.65237312		0.895385		1.0118254435437224		1.899000208177216		3.0221380646977716
H		2.90522191		-0.95713971		0.27096809		0.3187043785283929		-0.7160652807457624		0.6020174711571856
H		0.9440898		0.87624593		-1.90994625		0.24963894366040698		0.4798196760476295		0.4349897163201243
H		-1.35173272		1.35329166		-1.84619181		-1.0285767974498201		0.08102003594512067		-0.8916011757687299
H		-2.89781761		0.16705639		-0.08553607		-1.0811107591507216		0.4228419739764475		-0.6314226119234779
H		-1.98582292		-1.05569735		1.80539342		0.7649399456389772		0.6166865914887114		-0.8852510652774386
H		0.55895261		-1.23020271		1.95005784		-0.14917956833901896		0.5825893417905312		-1.1695107352317127
15
Lattice="50.0 0.0 0.0 0.0 50.0 0.0 0.0 0.0 50.0" Properties=species:S:1:pos:R:3:forces:R:3 Energy=-7373.500609064899
C		2.4327689		-0.15772405		0.20084658		-0.16956743907914054		1.1822701944302314		-1.7530139499160107
C		0.93372682		-0.13853705		0.1691335		0.3309973881984759		0.7641338533880946		-1.3838968211846203
C		0.18314598		0.76920391		0.89947762		0.8380365102481875		1.4094724066944715		2.743709450936472
C		-1.16735037		0.94614918		0.7460701		-1.3113210078017874		0.5885336293650091		-0.19329383580141926
C		-1.77738407		0.13276067		-0.19027409		-3.5977020214729887		1.0272728882124107		0.38770676994782166
C		-1.15287517		-0.79885702		-0.92770716		1.3650107317781952		-1.2956730685116271		-3.498138727011761
C		0.2239791		-0.78237951		-0.85404037		0.9842193036320565		-0.7989133195887284		0.9836939758421219
H		2.79751915		-0.34693827		1.16296953		0.9138473370014767		-0.4520446660828952		2.167079514806778
H		2.83334576		-0.88432442		-0.48279364		0.2285792950965084		-1.2668946598424105		-0.47902237696942496
H		2.98995936		0.74602737		-0.19197369		-0.8248808954805952		0.08267649484265051		0.47773476852581065
H		0.604908		1.41064154		1.71492776		0.4574833719394172		-0.3602837440005212		-0.5018554696229149
H		-1.78229097		1.76411285		1.22342438		0.7387439529457313		-0.7121904226523075		-0.08654909036535792
H		-2.82938347		0.27820963		-0.44705619		-0.5673377637576944		0.19889580670620308		0.3207561188199349
H		-1.52380418		-1.30772049		-1.89928476		-0.2853955318916141		0.5882050423859877		1.7031756869946448
H		0.77048586		-1.30867582		-1.59792831		0.8992867172217088		-0.9554604353465685		-0.8880860664241378
15
Lattice="50.0 0.0 0.0 0.0 50.0 0.0 0.0 0.0 50.0" Properties=species:S:1:pos:R:3:forces:R:3 Energy=-7373.613997125052
C		2.43662071		-0.13800932		0.11021388		2.4233097898534033		-0.6256784075939722		-0.33193244698196966
C		0.99626001		-0.10068296		0.06698051		-4.1536520609699386		-0.11866072854430014		-0.2680885626008019
C		0.11562571		-1.27945498		0.36392818		3.505210597571525		1.1618068875245033		-0.6881711772844065
C		-1.23096599		-1.06230602		0.33657303		-2.9653458420058274		0.5150076391123235		-0.1645991422498623
C		-1.86939938		0.18945427		-0.03645145		0.728592775020593		0.6979690342184872		-0.781835178475795
C		-1.10162199		1.30210864		-0.50624278		2.1690691372468867		-1.8235992152616107		1.7380992892363112
C		0.32520503		1.10630217		-0.33265985		-0.5788856677429545		-0.8840303055150026		-0.331053592512728
H		2.80999346		-1.14682113		-0.23156762		-0.0023018572032727958		0.6009358080736621		-0.4147602255323323
H		2.96174573		0.72727812		-0.41982862		-0.5100133227194482		-0.9354316448684982		0.3315055410195541
H		2.83452393		-0.17221918		1.13433453		0.016398495713602326		0.3803459588191807		0.6249772163504769
H		0.64407931		-2.30302207		0.48117297		-1.0125246807488448		1.3370144012566993		0.1532268446078509
H		-1.97923581		-1.86993801		0.56590249		0.6894933413539834		0.25636798332985283		-0.07819989577446812
H		-2.96738713		0.27899229		-0.06627999		-0.026897389624991164		-0.32474996756588675		0.14213001495435557
H		-1.33348667		2.33813203		-0.83649888		-0.8365258328976882		-0.6551088994370499		0.07075305553535724
H		0.94159185		1.94130899		-0.65442819		0.5540725171529702		0.4178115078736736		-0.0020517402915419657
15
Lattice="50.0 0.0 0.0 0.0 50.0 0.0 0.0 0.0 50.0" Properties=species:S:1:pos:R:3:forces:R:3 Energy=-7373.51292047632
C		2.41414231		-0.17304851		0.16064736		-0.6823671690962776		-0.5367824142986399		-0.9160025384826573
C		0.9298129		-0.00416254		0.08650101		1.1332563814360412		-0.9066710796549495		1.4124145714193055
C		0.34684211		0.26069471		-1.10822802		-0.25867621686886877		2.16629183165425		-3.012921688445815
C		-1.05195551		0.46222868		-1.2823056		-0.29214550034047493		-1.0790504313747513		1.2317018631038468
C		-1.85953735		0.0647206		-0.17049202		-0.20897895324272678		0.15564095617344037		0.7095870264748592
C		-1.25756563		-0.26931422		1.10341172		1.752446918833433		0.5770539110345507		-3.1951092329342496
C		0.15639898		-0.31522701		1.18309527		-0.35938714891973605		0.20605195802631424		3.1885175415935927
H		2.64509728		-0.77071176		1.02055556		0.607239741552878		-0.48933975100038424		0.9789614491691523
H		2.62613153		-0.76989769		-0.73144263		0.6973899703732979		-0.32284472873024966		-0.30890055663506855
H		3.02692065		0.71593201		0.1085687		0.35042448912388147		0.9065335256379101		0.10510612999419976
H		1.17088711		0.51414335		-1.84927533		-1.3374837818426941		-0.12426599046108038		-0.19487845807771395
H		-1.61315467		0.84977568		-2.16606324		0.7868304204657942		-0.3398577695121281		0.07378124937066086
H		-2.98871785		0.04589982		-0.29694419		1.0125373819982686		0.1954039401338359		0.2881716033547515
H		-1.75578629		-0.42195103		2.00106018		-1.7756658312214457		-0.5413157833237613		1.8235825545133788
H		0.72402083		-0.47052691		2.24039586		-1.4254206508293086		0.13315177427358021		-2.184011565840306
15
Lattice="50.0 0.0 0.0 0.0 50.0 0.0 0.0 0.0 50.0" Properties=species:S:1:pos:R:3:forces:R:3 Energy=-7373.214705325885
C		2.44906139		-0.32901773		0.14973067		-0.5328952663322607		2.507320121573806		-0.7766487492576264
C		0.99732774		0.07000071		0.03985413		-0.27080642428925206		0.6900748734581703		0.2637535798925921
C		0.1888777		1.00482416		0.7287686		3.209364611351346		1.1893120859275905		3.2025451202740594
C		-1.15767533		0.9087792		0.7039971		-1.787119529988307		3.469606784287841		1.219555766266168
C		-1.83843184		0.02753692		-0.03783598		-3.142414217333771		-1.9367759351123748		-1.7262009953175532
C		-1.17937973		-0.89706533		-0.82166591		2.2546419283346704		0.5725490812540862		-0.6804903666611724
C		0.25971851		-0.7177763		-0.79877284		-2.9131540941304945		-1.748109365022101		-0.6137589277854871
H		3.17860428		0.49790036		-0.04305526		-0.13389235481690823		-0.38650729891923746		-0.0755058425009299
H		2.5783443		-0.65747378		1.12886792		0.6219387381026843		-0.5664963445499126		2.689494861968692
H		2.6195234		-1.21857327		-0.41993605		0.4190700114299444		-0.6964277607408335		-1.1252400932774183
H		0.53875941		1.71176807		1.60100648		0.16518489096316943		-0.9389874804865465		-1.770760886373099
H		-1.8004279		1.73384606		1.13972325		0.7694298630213329		-0.6928741876935327		0.21612024358679152
H		-2.94473813		0.12090927		-0.06937973		0.1900696210640766		-0.2959333008822111		0.09959599889294214
H		-1.66092587		-1.61892105		-1.52297359		0.20851137242891749		0.33321928409464724		0.4376796044066045
H		0.83340219		-1.36999784		-1.38546838		0.9420709016169155		-1.4999705571893922		-1.3601392112704378
15
Lattice="50.0 0.0 0.0 0.0 50.0 0.0 0.0 0.0 50.0" Properties=species:S:1:pos:R:3:forces:R:3 Energy=-7373.758055241793
C		2.48474414		-0.1431851		0.27330074		0.7603106744673966		-0.17688449003264106		-1.5795756636642855
C		0.96538754		-0.18027958		0.11521112		-0.9570078280496535		0.19682601727074298		-1.5862593490746553
C		0.11694017		0.23383735		1.18707471		2.063312003942137		-0.24569122050446793		-1.1389828451540036
C		-1.21150953		0.46026459		1.03603083		-1.918162794013406		-1.2733829928375529		-0.9419087164319652
C		-1.86207555		0.13082208		-0.18115261		-0.015896770650329774		0.6645086981857465		1.4396924328843246
C		-1.12935044		-0.21737586		-1.28849585		1.9900293428889402		0.3716850951078138		-0.2187803068770538
C		0.3157436		-0.33176827		-1.17937049		-0.943986681975354		0.049970211933598234		1.7448995484622427
H		2.88895755		0.69492859		-0.39419463		-0.2665469805907735		-0.8726690121943542		0.26820421081924
H		2.71693501		0.23917256		1.25294439		0.2820219874849321		0.05676872280940684		1.1691361255068033
H		3.17430858		-1.08109186		0.0794617		-1.5190926224403758		1.2259425406879823		0.1853132345541328
H		0.59116841		0.49893202		2.10327638		0.582941120119715		0.13460830419232522		1.3254873232067295
H		-1.82450467		0.66548028		1.89482567		-0.45846687030573374		0.5807020492546872		0.76386409324851
H		-2.94814714		0.2234904		-0.25613059		-0.29556604451223134		0.11007848916641115		-0.009824802094801782
H		-1.73329327		-0.15173681		-2.1962908		0.48895655379104647		-0.6492178336972022		-0.7859275004713285
H		0.94921486		-0.5197676		-2.0375036		0.2071550126878147		-0.17324473360868312		-0.635337836335952
15
Lattice="50.0 0.0 0.0 0.0 50.0 0.0 0.0 0.0 50.0" Properties=species:S:1:pos:R:3:forces:R:3 Energy=-7373.5651119963495
C		2.47986301		-0.28168951		0.15885012		-0.10543507692765826		3.169769623268956		0.8289122309100694
C		0.9943424		-0.03485923		0.08587937		-2.2986762344899687		0.07583689773894862		-0.335345586376734
C		0.21582179		0.7343525		1.02354979		0.7656158886498124		-0.17045184713112624		0.0006047234543492109
C		-1.20016195		0.7338164		0.94924602		-0.14421445967761232		0.875057258462534		-0.568281358603554
C		-1.87730942		0.17431501		-0.18459436		-1.6456153215339029		1.028470765157059		1.702974883840799
C		-1.15560384		-0.54110703		-1.11150329		0.8936373865974137		-2.2613929766468424		-1.9378625861359557
C		0.22793443		-0.74041519		-0.93699778		2.447096144700493		1.3565258343645141		0.3426490619057492
H		3.00865632		-0.1215665		-0.82810859		-0.07848616239609756		0.37722350834341595		0.8799215284594868
H		2.92798656		0.17656369		1.14176561		-0.2955133368982255		-0.3162306173703676		-1.8907811628263738
H		2.4841568		-1.29478017		0.31861283		0.6321494627761332		-3.470259741636764		0.5461659636756041
H		0.7414298		1.38222722		1.80536799		-0.5463401816231666		-0.8760903276970473		-0.6550374227702517
H		-1.77085417		1.34596503		1.70707676		0.3315414850412029		-0.5338832898400724		-0.6017945565164879
H		-3.01419345		0.34866411		-0.28329307		1.495140688552215		-0.3985711718790671		0.10132743115751633
H		-1.58307153		-1.14457438		-1.99762709		0.03522159309353286		1.146484347045493		1.1139055394292412
H		0.96087105		-1.22053603		-1.6775511		-1.4861218244421086		-0.0024882107575722465		0.47264125897447967
15
Lattice="50.0 0.0 0.0 0.0 50.0 0.0 0.0 0.0 50.0" Properties=species:S:1:pos:R:3:forces:R:3 Energy=-7373.394193752646
C		2.37065511		-0.25615184		0.20556489		0.2433619039198497		-2.0367517373585335		-0.5083790781528944
C		0.92065981		-0.07030487		0.10670522		0.14124262442274801		0.7126919420273303		-0.7980607932154584
C		0.2945386		-0.49782582		-1.07349839		0.32096741207451995		-0.60913119927578		0.08065519641207577
C		-1.08287731		-0.60970064		-1.09480686		0.09451699036322055		1.1763144397358283		1.4056947877210995
C		-1.82553795		-0.04856726		-0.00124726		-0.17723775960163593		0.29316082896344475		-2.228820853898708
C		-1.17618162		0.75450615		0.91232249		-2.98003424561077		1.9133870213859208		1.5014953756070637
C		0.17356052		0.7138044		0.96844648		2.097956950027416		-0.6328563104464975		1.2242832535770176
H		2.94479884		0.30203817		0.88982813		0.7215683670244651		1.498066449639129		1.2878872026148187
H		2.63259071		-1.31257445		0.4595221		-0.3196703419714158		-0.05024727400605007		0.1831043998618224
H		2.8034128		-0.20214203		-0.7818617		0.6052812294605482		0.43262460998004465		-0.951973351026009
H		0.96560181		-0.6579954		-1.93281314		-0.29629634064307037		-0.5618583316277164		-0.17359810602180284
H		-1.55716465		-0.84456989		-2.01554584		-0.9355948584946974		-0.6800003144060747		-1.04990003550581
H		-2.87355583		0.14777709		-0.20138263		-0.7907890450989715		-0.39030620662646176		0.24247821577673814
H		-1.77689973		1.56228587		1.54022058		1.0168331296728332		-1.7582041843667997		-0.9135407072431191
H		0.73618365		1.17605586		1.7628728		0.2578939844549606		0.6931102149601537		0.6986744934931655
15
Lattice="50.0 0.0 0.0 0.0 50.0 0.0 0.0 0.0 50.0" Properties=species:S:1:pos:R:3:forces:R:3 Energy=-7373.732018967878
C		2.41490029		-0.21184576		0.32947553		0.5170081116076081		0.7364993799200219		1.0003713334003614
C		0.94601815		-0.01813707		-0.05123467		1.0494699413755226		0.4873687433468802		2.393919252952846
C		0.30824121		-0.46651242		-1.17718929		-0.061866037593358736		-0.8991553852742253		-1.167529803120157
C		-1.08004389		-0.4327364		-1.16466133		-1.989375614209081		0.4533742863515268		0.8961629297723207
C		-1.86211236		0.03246196		-0.06931853		0.9504131028073131		0.9488405647156928		-0.35240670678699826
C		-1.20345474		0.61161293		1.01785214		-0.28223405207045393		-0.9195269552205518		0.1122428437747069
C		0.15629965		0.51205158		1.01966456		2.064959361134615		0.11112909332421801		-0.8592770616277664
H		3.16044245		-0.134347		-0.47593307		-0.06098641179318038		-0.48480530211195144		-0.4948609378450674
H		2.8300267		0.5704307		1.07365599		-0.9250385775616202		-0.5720360433370758		-0.7327938546781972
H		2.53493666		-1.16306581		0.92324362		0.040853131684222325		0.2046622767887473		-0.645813281786866
H		0.82939762		-0.93734165		-2.04674544		-0.10205505334110826		0.3577152634034728		0.4205621768379635
H		-1.67040391		-0.75041201		-1.99644107		-0.3322877220113998		-0.5517428920359774		-1.2050215260044344
H		-2.92702169		0.23895759		-0.00551978		-0.7331793144582823		-0.7109043568705665		-0.852703727963403
H		-1.75646378		0.95906206		1.88988801		-0.16997069089283157		0.4014861343328676		0.2273727792453693
H		0.81410189		0.89742691		1.77549278		0.034289773899973154		0.43709508982279616		1.2597756352513843
15
Lattice="50.0 0.0 0.0 0.0 50.0 0.0 0.0 0.0 50.0" Properties=species:S:1:pos:R:3:forces:R:3 Energy=-7373.549033757888
C		2.40259441		-0.33437508		0.14584515		-0.24724257270636088		-0.9334549293660629		-0.687531281139345
C		0.92509012		-0.16705219		0.14796859		-0.06375034764958089		1.0375109180010178		-4.525614732370828
C		0.34439736		0.38562384		-1.13320765		1.1647551200527055		-0.5455854085906039		2.882306101714068
C		-1.01026267		0.64864917		-1.22984302		-0.756327624354558		-0.7923482648764185		-0.30669506437681704
C		-1.82802735		0.1917554		-0.16308136		-2.5448182207938266		1.0092730066301567		0.48006429079867863
C		-1.23697026		-0.24060916		1.03421248		-2.386892890918345		-0.9445306245518934		1.4459278207543018
C		0.10302638		-0.46276914		1.1818902		0.6450924987375792		0.43749654186430154		-0.22941104695655076
H		2.76748435		0.29085874		0.94794107		0.9144318515852851		0.2639822023822211		0.7433213906783678
H		2.7432651		-1.42900417		0.23940524		-0.1962619172457251		1.2239564663701819		-0.05988772800698774
H		2.67687489		0.11727339		-0.82678272		0.8865630992007142		-0.32288411803008227		0.14858116979835048
H		1.07437958		0.69605579		-1.88251862		0.06771138911969311		0.017724053639300793		-0.4392612956253399
H		-1.46114547		1.07051744		-2.16481078		0.23688483235638266		-0.16563935915105532		0.5520358435257245
H		-3.02331774		0.32398366		-0.1977659		2.535419193376067		-0.2667715921595317		-0.008832304867557383
H		-1.77409633		-0.5533564		1.98841556		-0.40176684737175306		0.5352765706220105		-1.2394311133099036
H		0.57325371		-0.76802985		2.09005121		0.14620243661172289		-0.554005514205605		1.2444279493838386
15
Lattice="50.0 0.0 0.0 0.0 50.0 0.0 0.0 0.0 50.0" Properties=species:S:1:pos:R:3:forces:R:3 Energy=-7373.806193909508
C		2.40787563		-0.1383683		0.22944187		1.0520757029678436		0.5005896641337771		0.2988751570746701
C		0.93297559		-0.10763503		0.07179937		0.3755095595800729		-0.729328933266551		-0.03589913018830371
C		0.11479297		-1.26225006		0.12741595		1.717889904474935		0.8504043390191274		0.6128387814001024
C		-1.24688285		-1.07233808		0.1339537		-0.3715040894480086		0.24501275781257306		-0.3216729227712607
C		-1.85879523		0.1567102		-0.13622709		-1.558723863076788		1.1076330762522415		-0.7161866368131318
C		-1.02469784		1.29849413		-0.32264767		-0.7272457226727929		1.3487028931606826		-0.24971684808501063
C		0.34186314		1.11734054		-0.13883381		-0.6799040523051784		0.8056024557377173		-0.3643430016099027
H		2.74875098		-1.02166256		0.7696604		0.20450672504985215		-0.6145052161777466		0.19186337686833368
H		2.94717507		-0.1080984		-0.73750088		0.004234503998192927		-0.09530313085387454		-0.1839273071271243
H		2.81823402		0.73790703		0.81060877		-0.43086566691206263		-0.3332215466653949		-0.29032983873761636
H		0.63166176		-2.22444671		0.29364175		-0.42030388381830386		-0.0703884731126246		0.02844642783407413
H		-1.84500655		-1.91161213		0.38353156		-1.1171923862386415		-1.2235939922520096		0.02327465390370237
H		-3.01451477		0.15163898		-0.28795859		1.757495896878687		0.3072608613298956		0.4330268847745492
H		-1.23596709		2.44532763		-0.58384298		-0.6313682588034739		-2.5226501696739336		0.5005126338842352
H		0.91621814		2.02802191		-0.22920466		0.8253956303256663		0.4237854659781821		0.07323776959268324
15
Lattice="50.0 0.0 0.0 0.0 50.0 0.0 0.0 0.0 50.0" Properties=species:S:1:pos:R:3:forces:R:3 Energy=-7373.314444885869
C		2.39269834		-0.09351349		0.24225093		1.8758203765566615		-3.0687217224428895		-3.4381829161940964
C		0.94335657		-0.13110671		0.03993055		-1.2476068098621051		0.35906385841314653		2.2577516775610107
C		0.16981609		-0.13406176		1.21921791		-0.6749978219052709		1.7794257610053366		0.13076465929077416
C		-1.22060668		0.15450503		1.14452312		0.39487037746698733		0.030892266812191975		-2.5210795341986243
C		-1.78571066		0.36501533		-0.16827592		-0.5115942426072468		-1.2887558240936339		1.6071190686597692
C		-1.06435207		0.0245964		-1.30753364		-1.7281776593979261		1.1011693230029478		1.401200705151686
C		0.26441179		-0.15832626		-1.16386327		2.659274270136152		-1.3165301655715564		-2.5399002147416194
H		2.7767025		-1.01041585		0.80387378		-0.30652588579137413		0.9405399639738132		-0.13593864436983105
H		2.7418426		-0.31005534		-0.86222779		0.3254140320802971		0.40332221049451666		1.5746906191541052
H		2.92722324		0.79692265		0.54092229		-0.06136374688739929		0.9291354761207115		0.5320881970621918
H		0.79820419		0.029809		2.11876076		-0.6699899300879103		-0.6345165745766483		0.35594346481987954
H		-1.93676495		0.15318931		1.93642093		-0.3393092503720309		0.2332249699060088		1.3487234105635983
H		-2.86865149		0.50554652		-0.34397468		0.04064754627856857		0.22357669975157957		0.5738745363356599
H		-1.67418873		-0.00925204		-2.18445617		0.06679319677268124		-0.15343932056987222		-1.4306247178148954
H		0.81512628		-0.4775802		-2.08308243		0.17674554761991562		0.46161302635228546		0.28356974014245395
15
Lattice="50.0 0.0 0.0 0.0 50.0 0.0 0.0 0.0 50.0" Properties=species:S:1:pos:R:3:forces:R:3 Energy=-7373.977991003649
C		2.44938138		-0.26957099		0.08496215		-0.4713681001304123		-0.5769868566651228		0.4627586584814901
C		0.93346143		-0.20181087		0.0535398		-0.23778919216859692		0.9989741959637402		0.047413198456475035
C		0.08284945		-0.8864703		0.9643238		-0.6398927512052376		0.11685262598462098		-0.2762645676853781
C		-1.35695316		-0.65397538		0.83325704		3.4470619637164153		0.5654239374376292		-0.5444384909098382
C		-1.83274134		0.28557826		-0.08517421		-1.2383654424878003		-0.4546857546321155		-0.2034560694699829
C		-0.98154092		1.0253817		-0.96702537		-0.13824548951316099		-1.547152202098679		0.9247075223236016
C		0.38710093		0.746345		-0.89006918		0.05873582238616489		-0.7220561052867528		0.7111024346551034
H		2.87255486		0.39245191		0.85761342		-0.012190216967256175		0.39637472990380584		0.1799385491653544
H		2.79801626		-1.27637088		0.39843618		0.11342405997112322		-0.05310052998491696		-0.4036704407013919
H		2.85673684		0.05735811		-0.88702122		0.24921255191861585		-0.2603956163708309		-0.056269723115443857
H		0.56432647		-1.58951191		1.73916296		-0.8599317673268118		0.7627384643015964		-0.960145653722089
H		-2.06335751		-1.20122052		1.40061469		-0.899829322824625		-0.8364575958208241		1.0133008453593846
H		-2.97114417		0.22380666		-0.09254096		1.0364527033779691		0.8926860270201248		-0.5519531054272512
H		-1.37438761		1.62787122		-1.77669568		-0.3059230649533354		0.5725747408632461		-0.2279328683495165
H		1.11190073		1.22489407		-1.56514843		-0.10135165094892776		0.14520988796241607		-0.11509039190464244
15
Lattice="50.0 0.0 0.0 0.0 50.0 0.0 0.0 0.0 50.0" Properties=species:S:1:pos:R:3:forces:R:3 Energy=-7373.462280542417
C		2.41738296		-0.24570164		0.27079305		0.23026583590056832		-2.9425559953068534		0.08865646932846499
C		0.91935432		-0.0221061		0.07617429		1.7547353034563455		-0.7169203268000923		0.03777459564978537
C		0.40012719		0.64981806		-1.05359475		-2.6869829970623944		-0.496546861584378		2.8403706384595107
C		-0.98748172		0.85254422		-1.08135271		-0.7373262981061944		-1.6138068164130717		2.086132446768266