15
Lattice="50.0 0.0 0.0 0.0 50.0 0.0 0.0 0.0 50.0" Properties=species:S:1:pos:R:3:forces:R:3 Energy=-7373.158888680111
C		2.48074076		-0.22510124		0.1831258		-2.03525442974427		-1.7254731674457116		0.17084795127813746
C		0.96088029		-0.04419452		0.01653264		0.895516297337079		0.4527201977172307		0.014302532448357955
C		0.0999343		-1.1568941		0.22179184		-2.0517323725443495		2.8823890969228536		-0.4440586140969897
C		-1.33408489		-1.14426202		0.19590992		2.4583188555628532		3.423859866342823		-1.3927324170641744
C		-1.89293856		0.14790802		-0.1000732		-0.17112125954003082		-1.6187001398753058		1.3302043204168406
C		-0.99264376		1.23819068		-0.27888695		-3.2307365461004705		-0.10435526503838283		0.3899269174938699
C		0.37346972		1.22870187		-0.24281488		1.1949319002880425		-0.38767499111323084		-0.8294722685921541
H		3.17166921		0.50109829		-0.1236783		0.9079715950362374		1.7919759324097055		-1.5773396781230042
H		2.64618706		-0.15116468		1.23863342		0.17820367162259643		-0.3926931673430804		1.6296820412192372
H		2.82410166		-1.23014243		-0.13270338		-0.013157980182464692		0.03640985411250408		-0.03218856558435943
H		0.44334131		-2.10516699		0.13389025		2.0918834388100147		-3.5105515500873397		0.27601537637077134
H		-1.77850856		-2.0904918		0.01229443		-1.2035042152078796		-1.1554216557645627		0.3948551051144413
H		-3.03190812		0.20082848		-0.02130622		1.2207712295561723		0.5883986464510919		-0.5235155221879175
H		-1.51949628		2.16985199		-0.40049794		-0.20336973182713827		1.0089809293154712		-0.40570094368114423
H		0.87481646		2.17791587		-0.65331633		-0.03872045306639246		-1.2898645351820033		0.9991737649880877
15
Lattice="50.0 0.0 0.0 0.0 50.0 0.0 0.0 0.0 50.0" Properties=species:S:1:pos:R:3:forces:R:3 Energy=-7373.718435657012
C		2.45293244		-0.23244657		0.07421593		0.21667771016575404		1.5422238602119203		0.5975077562807888
C		0.96206991		-0.02276229		0.05833138		1.4034364850047174		-1.3172767110741277		-1.9343418717865573
C		0.23352579		-0.45770576		-1.0445573		-0.16204290010367575		-1.1422328223446312		-1.1114103352711766
C		-1.16447595		-0.44270484		-1.17347738		0.5950276187870204		1.7641249206366778		1.6424092073625407
C		-1.88231058		0.21323236		-0.10619082		-0.3737122556535072		0.09320711616656771		0.34376219529148877
C		-1.16140205		0.50514296		1.12052663		-0.8341590296295478		0.1564479740214469		-2.9176560442754624
C		0.23328551		0.45662984		1.06629339		-1.3538214452564243		0.8731173611568093		4.364163031719079
H		2.89143051		0.62980941		-0.50039172		0.21126954901432415		-0.6016407017056535		-0.019396453376188495
H		2.91439709		-0.14968686		1.10109189		-0.41757501780849066		-0.21077923964891437		-0.5010667580291389
H		2.70232206		-1.1959151		-0.37777595		0.3330066024443762		-0.2521919462166595		-0.2410808212298045
H		0.80872994		-0.91934904		-1.85605752		0.07904990246667837		-0.13431247306708108		-0.29352813675548695
H		-1.52422084		-0.82310424		-2.12383694		-0.8512943520759196		0.057768264859206164		-0.2721210293156498
H		-2.95419759		0.61623608		-0.23649858		1.1074026025683645		-1.103880859777717		0.2810816322290066
H		-1.64428702		0.87876482		2.02105309		-0.3683167443294388		0.24102960485560965		0.16121469636594207
H		0.69499848		0.73343496		2.03101447		0.41505132582783166		0.034395703348609155		-0.0995370177873181
15
Lattice="50.0 0.0 0.0 0.0 50.0 0.0 0.0 0.0 50.0" Properties=species:S:1:pos:R:3:forces:R:3 Energy=-7373.340242130475
C		2.38971312		-0.24175883		0.12342768		1.9807954831357524		-0.012705260344701902		1.9429956392533068
C		0.89623225		-0.23345283		0.1179434		1.0487782117915174		0.2810258907133166		-2.1262691662785094
C		0.3761601		0.83642852		0.85338		-3.7727077036100893		0.06608938300400118		-0.5412081055250022
C		-1.01498741		1.15368016		0.66170506		-1.567788389978346		-1.2036089619490795		1.55163003529636
C		-1.86371718		0.21350979		-0.06798549		0.743089939975304		2.380656166074744		0.07459212387335072
C		-1.24314666		-0.74181409		-0.83777765		0.6255928412820643		-2.5420879663883276		-2.8601695208963904
C		0.14014925		-0.9816257		-0.86667373		-0.34327754235294783		3.0806214047573333		4.136370802710348
H		2.86188692		0.80880733		-0.02556085		-0.6976720718078694		-1.2910954250907412		0.14337088074320764
H		2.72331862		-0.58464041		1.19048386		-0.15206126071841777		0.5499142720733828		-1.2637386821819319
H		2.92537402		-0.93718132		-0.54886528		-0.3075710906326243		-0.10459915988055785		-0.2838283931165506
H		0.87990223		1.40487976		1.62263125		0.8791410443957018		0.30660096200254333		0.12941899533865986
H		-1.58949739		1.92875206		1.33357265		1.2542379419246563		-0.9855369425601384		-1.2396006004277211
H		-2.93495822		0.40261161		-0.27348491		0.1326772514813409		0.08018895257189004		0.47715714449836977
H		-1.70137377		-1.38384719		-1.67041468		-0.5823495092912891		0.8313151324660459		1.2377965602109753
H		0.64374848		-1.69737769		-1.43722596		0.7591149058273085		-1.4367783960276481		-1.3785178163425966
15
Lattice="50.0 0.0 0.0 0.0 50.0 0.0 0.0 0.0 50.0" Properties=species:S:1:pos:R:3:forces:R:3 Energy=-7373.28905594225
C		2.41632281		-0.3598815		0.20758315		0.11123245166973178		-0.04322754541760453		-0.9279233038427034
C		0.94481792		0.03217144		0.04862128		3.200666620910894		-1.5891045317897183		0.7379267021072982
C		0.2272132		0.82261369		0.89781981		-2.053488744509209		1.779582598295793		0.7180224044424064
C		-1.1991942		0.96906985		0.72071071		2.2482758770040214		-0.28638643503492267		0.11676330586215461
C		-1.91322358		0.17513469		-0.14205253		0.11168126343074877		-2.3748053638097906		-0.3788054566724635
C		-1.0990212		-0.77250454		-0.87051457		0.07234847644476528		2.086691044632602		0.396653437482256
C		0.34058309		-0.74008073		-0.91578633		-5.026229233360766		-1.5824978766288909		-0.5671314070211041
H		2.59897575		-1.44265391		0.47557192		-0.4616809548967749		0.5603805129751193		-0.1422367157339282
H		2.76933182		-0.22691959		-0.84033872		0.625339896156899		-0.19541309326095102		0.2510023482240647
H		3.07001305		0.22647344		0.85487209		0.008237814403634658		0.569024818782379		0.4341938056376059
H		0.6739977		1.39349208		1.7511165		0.05075923205974911		-0.3403471532804139		-0.6175471397037228
H		-1.66263327		1.67312794		1.34106011		-1.1374606492615167		1.3476131053912932		1.353599250524601
H		-3.04516589		-0.01014924		-0.03748274		1.3829944154107794		0.6475449711617525		-0.4528392912138526
H		-1.67639299		-1.49349652		-1.39488473		-0.37726731994061885		-1.188334963897017		-1.0987131481902785
H		0.63825228		-1.62634027		-1.51028363		1.2445909058997258		0.6092799633024324		0.17703520809766643
15
Lattice="50.0 0.0 0.0 0.0 50.0 0.0 0.0 0.0 50.0" Properties=species:S:1:pos:R:3:forces:R:3 Energy=-7372.862713291859
C		2.47699388		-0.20775316		0.10548926		-3.152289464471831		-0.04382784657458351		2.9083343556396195
C		0.96664855		-0.11529485		0.10051068		0.8067357465719353		-0.7215949522307491		1.2244961409155386
C		0.36809851		0.71794942		-0.78450918		0.11799640691957756		2.0372649295417316		-2.041320176230242
C		-0.9893096		0.90060961		-0.94539699		-0.7928999207623247		1.602641595416525		-0.26961014142853945
C		-1.86269948		0.12859848		-0.15047694		-1.856041857256509		2.639347192497597		-3.997993981249703
C		-1.32791553		-0.73037937		0.66519148		2.6920411282347643		-2.230360636136551		4.755388819088238
C		0.0765637		-0.6579879		0.9885638		-1.3386028801876773		-5.282996097629002		1.1646020365728078
H		2.83847754		-0.3614948		-0.83577734		1.4719164282697084		-0.6437432352410938		-3.0931535784398467
H		2.74284489		0.73616485		0.50534912		1.1682304287209655		1.5573599957145687		0.48204640561767054
H		2.70376932		-0.9518302		0.84107615		0.9172088486455464		-1.011658270418715		0.5342123396176559
H		1.13328686		1.28547292		-1.30224187		-0.13262711497045734		0.7684433821753944		-1.061411326982609
H		-1.39184714		1.76163118		-1.56544019		0.400648674623894		-0.984039994900312		0.2467526747174506
H		-2.92666273		0.13288671		-0.36315727		-0.6341304977318137		0.1852737424101753		-0.0014150837364146204
H		-1.90979517		-1.41103807		1.30824027		-0.20823256200634255		0.035380024467924855		-0.1624170470300231
H		0.28495606		-1.61650844		1.65846336		0.540046686822627		2.09251017090709		-0.6885114370716028
15
Lattice="50.0 0.0 0.0 0.0 50.0 0.0 0.0 0.0 50.0" Properties=species:S:1:pos:R:3:forces:R:3 Energy=-7373.373682633728
C		2.41042685		-0.32194456		0.14685191		1.518285758858557		3.7345027567197038		2.7310584922897116
C		0.96353438		-0.02421075		0.20151543		-0.09756004517457069		0.8337416367486845		-3.448945245331389
C		0.39113665		0.95527622		-0.74862714		0.005270041491703506		-1.368653676370025		2.740904737384553
C		-1.01957344		1.07076192		-0.81520879		0.6944298079266087		-1.337686590456976		1.3057296812639296
C		-1.92801352		0.18003261		-0.10575953		3.0858589989276344		0.9011848598127287		-1.2264645260438578
C		-1.25954715		-0.8684575		0.58428716		-2.625768117045773		0.9529750013803684		-0.13820568883682882
C		0.12279508		-0.95928586		0.71539622		-2.4837593038925996		1.0058963254776658		-0.0618360585309535
H		2.89257777		0.44780501		-0.49056969		0.2864095749630228		-0.30951731285202977		-0.12886291715538328
H		2.97128224		-0.21006178		1.1760063		-0.9678447705995534		0.07040071156348643		-1.1460531216298324
H		2.70394757		-1.27775805		-0.11620639		0.38230184838632575		-2.7149390641089965		-1.20788064409842
H		1.1634981		1.62291087		-1.15726016		-0.4886645793204858		0.3158735425687519		-0.5436508591793733
H		-1.41480994		1.88894004		-1.35050515		-0.7982040550814292		1.3029854914795078		-1.0986373006481727
H		-2.99114301		0.43222867		-0.24117603		-0.08053276048139506		-0.6606718924185006		0.4250933347143996
H		-1.93484818		-1.56131613		1.09852899		0.17498758157111996		-0.4871869149340759		0.20720355511476243
H		0.4136612		-1.72492227		1.33861948		1.3947899680487723		-2.2389048231882307		1.5905465092647915
15
Lattice="50.0 0.0 0.0 0.0 50.0 0.0 0.0 0.0 50.0" Properties=species:S:1:pos:R:3:forces:R:3 Energy=-7373.4157919024165
C		2.46595496		-0.00027115		-0.12234858		-1.147316715970285		0.6304806111615542		-1.088003475244929
C		0.92782158		0.04728469		0.08950974		0.6812388147800543		-0.6406134828324619		1.2916764943963657
C		0.30445781		-1.22230271		0.27297903		-0.9782304845515015		0.19130333918624887		-0.19969835083477688
C		-1.12183982		-1.2586415		0.03791197		0.609919088116557		0.8624264058421894		-0.3889379683889342
C		-1.80042571		-0.01378238		-0.19494158		-2.755094604094095		-2.4626615001583674		-0.17707588294906015
C		-1.2362224		1.22936615		-0.04451244		0.8861615957371465		-0.9646140252602802		-0.20994260269293974
C		0.13209569		1.23544779		0.09373001		2.43140943317525		-0.8290384720733709		-1.1059331657119458
H		2.62418144		0.46570182		-1.12885915		0.2927020413223135		0.4511749133187062		0.4561916497308073
H		3.1319391		0.43220986		0.64062052		-0.0862688401250345		0.35963834569477826		0.1434753703740952
H		2.82323815		-1.00938069		-0.34918738		-0.11538905124332104		-0.6654895740268784		0.38373621539615715
H		0.9872891		-2.09602511		0.54677621		-1.0596985609267024		0.6181557712348179		-0.6328503969093163
H		-1.73897293		-2.16762504		-0.18505747		0.6616658294634934		0.23133479773466797		0.5702180677414073
H		-2.89922757		-0.13572423		-0.53947444		1.3569327371446387		0.3649686538436669		0.5678153204516181
H		-1.64713514		2.16370744		-0.32890365		-1.2872580022587459		1.1415334308733212		-0.0762898232649612
H		0.62910623		2.14455184		-0.23203974		0.5092267708522947		0.7114008368834698		0.4656185993284747
15
Lattice="50.0 0.0 0.0 0.0 50.0 0.0 0.0 0.0 50.0" Properties=species:S:1:pos:R:3:forces:R:3 Energy=-7373.4526383327275
C		2.37888312		-0.26535392		0.30526023		2.6877341191285242		1.3775152918131757		1.4912565744875201
C		0.9796864		-0.09363799		0.03260672		-1.6260406907113434		1.4804718767530636		-0.39984098828907566
C		0.21459219		-1.08206033		-0.52131315		-1.1352830277611103		-3.3258714753880882		-0.4186713361798108
C		-1.19576086		-0.9716179		-0.50953157		0.020812205599414893		-2.279306777696564		-1.221545645816589
C		-1.88269261		0.12805462		-0.06453769		0.5930750716539341		-0.014704807242862536		0.5542431355561617
C		-1.07842743		1.17427657		0.3933408		-1.9238295052948076		3.2883917338443607		-0.04045857019908444
C		0.28570034		1.15241124		0.32128445		0.7494163963178707		-2.9010005925158246		-0.18496320457507198
H		2.67751422		0.78435546		0.73961819		0.3638463159087498		-1.9184605277549607		-0.12040830733648192
H		2.66430756		-1.17468799		0.95638323		-0.5039395543917347		1.257072068896294		-0.2848271638354133
H		3.00648565		-0.40250915		-0.58026121		0.2045560388077366		-0.040520996582892266		-0.6678958694389763
H		0.58886771		-2.17167326		-0.85124906		-0.2237498892578932		2.353939165044809		0.7207297760301177
H		-1.72340517		-1.89802806		-0.86727385		-0.01525286358439773		0.7250696438342598		0.14144070220728486
H		-2.95886376		0.1232118		-0.03359532		-0.7971390013240754		0.2072057148413851		0.07998742950916941
H		-1.54893728		2.20782759		0.68445463		0.5146155973082454		-1.6972202408326167		-0.386900780541064
H		0.8453101		2.03135819		0.46371509		1.0911787876008867		1.4874199229864615		0.7378542484213138
15
Lattice="50.0 0.0 0.0 0.0 50.0 0.0 0.0 0.0 50.0" Properties=species:S:1:pos:R:3:forces:R:3 Energy=-7373.330762175761
C		2.37344324		-0.17769836		0.17788597		0.9359768215745363		-2.7101200455269954		1.1101973916622319
C		0.93797699		-0.14587551		0.12755076		-0.4845101394735192		0.2642933572820737		-0.523116384139222
C		0.31526888		-0.42623962		-1.08939676		-2.8326918332967113		-0.24379698599019392		-0.37076371459293034
C		-1.11265121		-0.1998205		-1.27837292		1.3112557017824826		-1.2257325844070206		0.9952131863165375
C		-1.85178392		0.10230203		-0.13519259		-0.7164358281277388		2.0854973842970743		-0.9549090365709744
C		-1.15099588		0.49608495		1.00871571		-2.2365536008050113		1.2590967097609274		2.0766277984342447
C		0.19539906		0.3394844		1.18087007		-0.21175944700323449		0.589306811495927		1.0769403270423348
H		2.84060076		0.70611181		-0.0729181		1.1520922829095206		3.1394304007383567		-0.11079531271688972
H		2.82216527		-0.62143927		1.08771348		-0.036228077121762195		0.22323957671019237		0.1533451153514736
H		2.70992026		-0.75798043		-0.64588655		0.7037532963346375		-1.4087287922494593		-1.1911119609572787
H		0.830131		-1.06019642		-1.79393608		0.6947865741958497		0.16852223423789037		-0.9733601981732427
H		-1.71604228		-0.35329055		-2.18677859		0.6184201834799083		-0.25126814886484117		-0.3482828630671862
H		-2.91682308		0.42507062		-0.31362131		0.5334276389447503		-0.5125094010525746		0.5489456346831127
H		-1.63634258		1.11764123		1.85161038		-0.01081652799110951		-1.1943039340614685		-1.022129242150196
H		0.56195005		0.68543882		2.16913609		0.579282954597402		-0.18292668521401365		-0.4668007411220151
15
Lattice="50.0 0.0 0.0 0.0 50.0 0.0 0.0 0.0 50.0" Properties=species:S:1:pos:R:3:forces:R:3 Energy=-7373.843173521609
C		2.43325317		-0.04385171		-0.0468284		-1.0782818258073912		-1.1106784964784642		-0.9387443055532456
C		0.94559246		0.07704613		0.12243853		0.32643409153301184		0.5464869401893836		-0.3337467201891422
C		0.24886888		0.93382261		-0.77088729		0.21160682632189876		0.479518497027891		1.2937532772323184
C		-1.1462434		0.91640552		-0.83362523		-0.7515711350004896		-1.152141596667405		-0.04979959353040686
C		-1.8893211		-0.08841539		-0.07826543		1.6334144601997207		1.5945152640442704		-2.031827097860271
C		-1.15305132		-0.92059625		0.73643502		0.13165251262094368		-0.2298963683819035		0.9106350007605586
C		0.2398117		-0.8159234		0.92400505		-0.4906836151803129		-0.2544868100194398		-0.3313131196618862
H		2.95032074		-0.32516905		0.83261217		0.6298662717815278		-1.0250156653593399		1.624848007395002
H		2.4497323		-0.88225433		-0.80213582		0.8823184650562197		0.4573315225890181		0.30370980796365465
H		3.01703412		0.80249595		-0.36356345		0.02947831436115113		1.0962082252624117		-0.899745042064278
H		0.90976329		1.7158707		-1.19372818		-0.5335301745372649		-0.1314703756757647		-0.6245269133496489
H		-1.65076455		1.52525623		-1.60903822		-0.08581272643115039		0.093596638289586		0.37230689068689465
H		-2.91610685		-0.29935075		-0.3631568		-0.5978599974085348		0.0974111783037934		0.30010152184191285
H		-1.67909808		-1.69356358		1.27811273		-0.36519948748198094		-0.6067485065903442		0.43814733948660123
H		0.74531124		-1.5390358		1.58680928		0.05816801997265095		0.14536950204424426		-0.03379900173600132
15
Lattice="50.0 0.0 0.0 0.0 50.0 0.0 0.0 0.0 50.0" Properties=species:S:1:pos:R:3:forces:R:3 Energy=-7373.600717633149
C		2.42195215		-0.34811435		0.04510878		0.618653742487532		1.440753167188433		0.5595553945611321
C		0.95215943		-0.06304236		0.06916913		0.40516929097752885		-0.3462800251570291		-0.3621210028696064
C		0.37814636		0.57017129		-1.03833218		-2.8847265896154006		-0.4658752468421361		0.38317478931838633
C		-1.05113223		0.62748002		-1.1605424		-0.2565247691982466		-1.5710886065239815		1.4801773826014433
C		-1.91869601		0.03483237		-0.10794115		2.3305850640546297		2.3059707111580563		-1.5175574167660906
C		-1.26478704		-0.27637248		1.06790586		1.2993197154919527		-2.5585643151044715		1.0861622054549729
C		0.14244121		-0.45154054		1.13726434		0.08270811941105399		0.42271048776277653		-0.65444190386508
H		2.82373251		0.11983128		0.95768809		0.3504973541863655		-0.4348705714014401		0.6201519756989197
H		2.84259329		-1.36156798		-0.07143037		-0.4233978464714743		-0.265938297637616		0.033127223912224266
H		2.89874459		0.32073173		-0.68161723		0.1659469659285993		-0.12213125496075272		-0.7462147558659414
H		0.96851403		0.84970993		-1.88674017		0.6790787282029416		0.4292708630674038		-0.7782831480903675
H		-1.45768425		0.89681498		-2.13676456		-0.32916347176344957		0.3483190127770849		-0.17568543038055648
H		-2.99788989		-0.03425784		-0.12938022		-0.631190287045353		0.07543374876938248		-0.48131754930458
H		-1.69853977		-0.89716623		1.86925285		-0.9459662256912236		0.6005746709291133		0.15402182969324535
H		0.67106037		-1.0060329		1.92917152		-0.4609897395333938		0.14171560455311405		0.39925040590189864
15
Lattice="50.0 0.0 0.0 0.0 50.0 0.0 0.0 0.0 50.0" Properties=species:S:1:pos:R:3:forces:R:3 Energy=-7373.570768413839
C		2.46183495		-0.15528612		0.1257255		-0.368528860337023		-4.002845344308983		3.6482591134052673
C		0.95932835		-0.23776717		0.12865709		0.15222288026068134		2.460541059991399		1.2275286027820254
C		0.1724619		0.4356696		1.10622341		-0.6128067968772619		-0.8829884431078112		-0.8370498751360615
C		-1.22379137		0.65627881		0.98366114		1.7544225544725571		-0.5564337668383667		-0.29640340137708016
C		-1.8775507		0.2653982		-0.20868536		1.3445670166782586		0.39033320320924514		2.3863714197830936
C		-1.0897062		-0.3964804		-1.12524696		-2.0343777864237134		0.02424745648103046		-1.6787293813981414
C		0.26964586		-0.57154692		-1.00696834		0.6613273180264202		-1.6247763764620162		-2.8807297069677644
H		3.03002331		-0.11342805		1.13346354		-1.1729013517631264		0.4311675658406751		-0.86806869164393
H		2.79257928		-1.154547		-0.20503295		0.40426827359937356		-0.071095217938864		-0.5848645109433952
H		2.82385278		0.56191809		-0.49389132		1.3480450507158284		2.7411542372315347		-2.4119162034775403
H		0.67263834		0.80561065		1.97280867		0.5563187871067403		0.3784813948349373		1.1559176215568412
H		-1.61410023		1.09152622		1.89260417		-1.0591031448656556		0.5518175568706469		0.15125414002628637
H		-2.9025004		0.52046485		-0.32123016		-1.4151343871461284		-0.026845864718421614		-0.46471727341794483
H		-1.64643128		-0.70596683		-2.03651413		0.5589907803154899		-0.05012139279718554		-0.03358133214567306
H		0.74982049		-0.9598917		-1.98161458		-0.11731033376244089		0.23736393171217957		1.4867295817981419
15
Lattice="50.0 0.0 0.0 0.0 50.0 0.0 0.0 0.0 50.0" Properties=species:S:1:pos:R:3:forces:R:3 Energy=-7373.436591682765
C		2.39963146		-0.25762312		0.09835535		0.98360265025922		0.9350504531195959		2.519102304475564
C		0.99262122		0.00168255		0.04782059		-2.1487521261088136		-0.7986002106505028		-0.3408634307873583
C		0.19452424		-1.01639335		-0.50334429		0.4659639498998531		-1.0482116949295643		-0.04633492922907295
C		-1.1958284		-0.98753698		-0.5198445		0.3451092476392891		-2.999140524288584		-2.072342129483919
C		-1.84003329		0.10206017		-0.09051713		-2.972135765397208		2.6414175989978066		0.29809657562719555
C		-1.1212744		1.1406168		0.43829911		0.5612900149935779		1.7740913390914523		0.7612975666898347
C		0.29207182		1.07806223		0.51012826		-1.9495268068264655		1.1550741968886238		1.1194340282067914
H		2.51962744		-1.28573624		0.1670104		0.3655608303147796		-2.8720529538391024		0.4157614130881299
H		2.80732893		-0.08740728		-0.83537583		1.7234468810750798		1.2177415444810578		-2.480052647365401
H		2.97154935		0.12903849		0.9712288		-0.07058500823528809		0.5334186400838226		-0.46342879079926885
H		0.78240303		-1.8927242		-0.81683671		-0.4137832577679462		-0.3031034390033072		-0.2891257397234122
H		-1.84150055		-1.77854656		-0.99477808		0.8449148795869725		0.12512453321565642		0.3384588323033212
H		-2.93563964		0.29383056		-0.24660842		0.5104889767970613		-0.6140328531121299		0.26059590530405286
H		-1.66192826		2.05557606		0.83079194		0.5579721606805235		-0.7365324957282361		-0.2943111919223942
H		0.67431653		1.84184907		1.15290455		1.1964333730893641		0.9897559685175356		0.2737122850379998
15
Lattice="50.0 0.0 0.0 0.0 50.0 0.0 0.0 0.0 50.0" Properties=species:S:1:pos:R:3:forces:R:3 Energy=-7373.564759243156
C		2.48003754		0.05127455		-0.00254413		-0.9036667970786826		0.3363655429853239		0.6134176909791044
C		0.98946787		-0.04400789		0.13231586		-1.9918346686572472		0.33772113139549		-2.463300573550429
C		0.16865597		-0.1315068		1.3063287		1.072898707200372		0.125421341360087		-2.5346624663051314
C		-1.21606785		-0.09854305		1.16985441		0.7390910518672326		0.25236086769179017		-2.100641284531152
C		-1.87635297		0.06811518		-0.06368729		3.3481844338799505		-0.2567088601817985		-0.7370363290960691
C		-1.13644673		0.11791115		-1.28883633		1.0181596646177182		-0.20701128802328186		1.2867112314687719
C		0.28639462		0.02203594		-1.20815845		-1.3005084907315485		0.17564830365147147		2.3781345823986455
H		2.59988823		0.13398323		-1.06230742		0.8843080360742661		-0.03032888669604827		-1.1753384489906284
H		2.93763002		0.9394015		0.44956107		0.014764251147048562		0.35656361489296223		0.36444815972760203
H		2.98240129		-0.81920348		0.37647974		0.6982285613676456		-0.9795055460118794		0.40257283677851063
H		0.61398864		-0.24135157		2.27839744		0.45450099516175174		-0.029489678636951403		0.8296434526380324
H		-1.73482842		-0.22368485		2.05700406		-1.7684330610282915		-0.15083422746436329		2.1098916507663845
H		-2.89826159		0.11918131		-0.10343744		-3.2477326176017423		0.14934776990527546		0.022119508692945506
H		-1.57814118		0.22344032		-2.31073039		-0.13592280637459808		-0.07615607448054264		0.6911396186831494
H		0.70358645		0.04484079		-2.22373288		1.1179628944223123		-0.0033940103875349462		0.312900370340264
15
Lattice="50.0 0.0 0.0 0.0 50.0 0.0 0.0 0.0 50.0" Properties=species:S:1:pos:R:3:forces:R:3 Energy=-7373.284097295713
C		2.40276282		-0.31476359		0.19345639		-0.7979053443206882		1.6029106356472353		2.746711162409617
C		0.9331744		0.1093027		0.05749658		2.5048831786124914		-1.1348297422806606		-3.3161935861256904
C		0.30501603		0.11264851		-1.21904777		0.4125679487441291		0.3052610058993603		-0.9178488476347326
C		-1.07116313		0.04964123		-1.28320008		-1.2952282162494186		0.8778100357313842		-2.904096097830868
C		-1.84473034		0.09113662		-0.12590811		-0.5012555284203731		-1.0266434307460257		1.6105946858604034
C		-1.23083292		-0.01774359		1.14647878		1.4578102252557639		0.9134921133941089		-1.3768893310470367
C		0.19996446		0.09160943		1.18807694		-2.877014257267888		-1.0816873547369137		1.1988524211729483
H		2.64386788		-1.35959773		0.10630664		-0.045803585057832254		-1.0922912010777521		-1.0410202166525535
H		3.14710471		0.35617165		-0.2081149		0.5973004225250119		0.3414207431001336		-0.9246532720477225
H		2.56989091		-0.21673098		1.31088958		0.24256537617258186		0.14052940041664058		-0.49835547836468164
H		0.75046005		0.16297732		-2.26614299		0.48896010191335515		-0.2405009346316161		1.4389182223121577
H		-1.49414854		0.05086605		-2.41113942		0.3196743528922865		-0.03736830993441011		2.5733819937743996
H		-2.93397774		-0.0106952		-0.0806387		-0.2958858897406371		0.09726832781432213		-0.5856911720192555
H		-1.82807626		-0.21873259		2.02678047		-0.2787892881072861		0.13765130758161295		0.5778432911151388
H		0.78898226		-0.21481933		2.03095623		0.06812045162644037		0.19697740382258008		1.4184462250778767
15
Lattice="50.0 0.0 0.0 0.0 50.0 0.0 0.0 0.0 50.0" Properties=species:S:1:pos:R:3:forces:R:3 Energy=-7373.498452948091
C		2.53012387		0.04442404		0.19957543		-2.8348399899553374		-0.3424587488526415		-0.5025164488135787
C		0.97224297		0.00832185		-0.0002899		0.40723301260962047		-0.46591617880384206		0.38767349987342004
C		0.1951802		-0.06838938		1.15001245		-0.25492040084997325		0.008412289461509393		-0.47674509951200067
C		-1.18110588		-0.03741513		1.11321051		-0.7273298491669523		1.5444112004821289		1.8401315111816938
C		-1.84167827		0.16849911		-0.07442368		-0.6198792845017755		-1.712848382628736		-0.15979483037772008
C		-1.18712492		-0.05061624		-1.25862199		0.45539671606747534		0.3842549611620989		-0.7671407584895463
C		0.20944565		-0.04888049		-1.18635074		0.73555089997823		0.17914232995046125		0.10051835642701203
H		2.77603172		0.91919539		0.77131247		0.4746924336233348		1.3826526643837718		-0.0003779007369058122
H		2.85600403		-0.72981003		0.87465031		0.0742683191461367		-1.1877460784379008		0.44815062756014834
H		3.01784961		-0.08562495		-0.74449484		0.9028672868517931		0.26685674709494006		-0.9642843584179474
H		0.65341449		-0.16462974		2.08525156		1.0714040221112928		-0.11385065740116412		1.9916533544650672
H		-1.74924928		0.09532774		2.06949352		0.2754347184416462		-0.48271345261170273		-0.38550153479988236
H		-2.88739332		0.03124368		-0.1335729		-1.9330034069231847		0.44446916784354784		0.30878809658450207
H		-1.82250802		-0.20969926		-2.17011972		0.9029990301757763		0.3050224589516795		0.21275554377485
H		0.76548934		-0.04479846		-2.07393063		1.0701264923919178		-0.2096883205941509		-2.0333100587191124
15
Lattice="50.0 0.0 0.0 0.0 50.0 0.0 0.0 0.0 50.0" Properties=species:S:1:pos:R:3:forces:R:3 Energy=-7373.642186277186
C		2.46442211		0.00083151		0.12496322		-1.9919772106143439		-1.3546214182818759		0.417341921599429
C		0.96072576		-0.00416458		-0.04634659		0.0523100186189552		0.24069397305403337		2.0216047003786466
C		0.19892889		-0.07383162		1.19282135		1.929726330305649		-0.3572505622251605		-0.7975570626917504
C		-1.15261802		-0.05411658		1.17382034		-0.719672949802755		-0.37929597172612317		-1.8046635549869887
C		-1.84254763		-0.0186085		-0.05528699		0.900305902499362		0.5492466080146013		1.4158905999964397
C		-1.15167139		0.13020243		-1.23305973		-1.7428632347894344		-0.3661298668577922		-0.9567936037375088
C		0.23055389		0.05746272		-1.20879628		0.6794567317839724		0.6679542334798511		-1.765043935736689
H		3.12038006		-0.14447284		-0.68828414		0.6614168952591988		-0.6001662769091778		-1.9212452381245888
H		2.80851888		0.89885105		0.55481621		0.4386215537464659		1.7245624827198167		1.2249221727028927
H		2.5539187		-0.82586178		0.82822443		0.9831293615964793		-0.3311423984145699		0.5507020066479725
H		0.60814958		-0.35018086		2.17631009		0.8040392250393995		0.4379235506708421		-0.08781211906312367
H		-1.67013515		-0.23870738		2.07225925		-1.0829900812668867		-0.12894426685817073		1.5251214478855126
H		-2.87919627		-0.12392769		0.05881836		-2.1747161538783724		0.05024053771586983		-0.4636357131785462
H		-1.76062255		0.23203244		-2.17983119		0.7911195346943033		-0.19424118445783722		0.5340327223535366
H		0.70100408		0.10332406		-2.20334229		0.4720939739638811		0.041170560075693224		0.10713565595476565
15
Lattice="50.0 0.0 0.0 0.0 50.0 0.0 0.0 0.0 50.0" Properties=species:S:1:pos:R:3:forces:R:3 Energy=-7373.53300236633
C		2.4694629		-0.1648828		0.18821157		1.1245656929284567		-0.8503083854506057		0.24689835342035638
C		0.97655997		-0.05708016		0.04775889		-1.0879187316860202		0.4269237544491798		0.16010531679076093
C		0.1756623		-1.21393705		-0.14846589		0.34436506755158997		1.9577700719687194		1.1390399750653795
C		-1.20621161		-1.08688643		-0.07278139		-0.3223432093552269		-1.8207095524625332		-1.8018194007131745
C		-1.91478195		0.06926271		-0.10950603		3.02074997754414		2.9938085706336968		1.12110118289331
C		-1.12344906		1.252405		-0.00282016		-0.10994679726449036		1.238863927961139		0.2407221009221906
C		0.30616786		1.22755988		0.05377332		-0.8931177666564104		-2.370977145526973		0.024566376112312247
H		2.95805962		0.36280162		1.07768591		-0.7105147833254858		0.3799940262238094		-1.0541548512186683
H		2.83862723		-1.23478233		0.47530753		-0.7024669220205216		1.1146771274762235		-1.10894958389495
H		2.8451199		0.19234128		-0.8336876		0.504118143214605		-0.42857419696540355		1.1939519500440348
H		0.65912772		-2.16246686		-0.16444147		0.4466547597636332		-1.2781771745633936		-0.15209550781200593
H		-1.8544859		-1.89519204		-0.34552741		-0.2675424602976396		-1.703580430048147		0.3381762166481253
H		-2.95017691		0.12138731		0.03755327		-2.073122459281517		0.0033486561284587556		-0.17031897252176925
H		-1.69171328		2.22763216		0.12582278		0.7367824583737798		-0.6359975813971169		-0.3014059452999466
H		0.96801125		2.07439518		0.15027366		-0.010263020910955179		0.9729383829950091		0.12418278956404492
15
Lattice="50.0 0.0 0.0 0.0 50.0 0.0 0.0 0.0 50.0" Properties=species:S:1:pos:R:3:forces:R:3 Energy=-7373.173172539937
C		2.43953748		-0.19762281		0.27783643		-2.07814217817324		0.43379194221960093		-3.2214986754264117
C		0.96417034		-0.13643493		0.07710028		-1.0108896648513546		-0.7283651809722133		-1.0568795006193614
C		0.22299105		0.63700063		0.93342931		0.8810349703776011		0.8229907233092544		3.353418942726505
C		-1.13464682		0.67830711		0.98521649		-3.154259546528211		2.2461110595971636		0.31635870972791724