9
Lattice="50.0 0.0 0.0 0.0 50.0 0.0 0.0 0.0 50.0" Properties=species:S:1:pos:R:3:forces:R:3 Energy=-7255.063625907377
C		-0.65944188		-0.16903901		1.28759328		-0.196985374242259		-1.3081073860093084		-0.22051091638862888
C		0.36021756		-0.15194524		0.02109228		-2.9422588272079855		-2.7514615839603174		1.3446719691077083
C		0.21233699		0.7269626		-1.15538705		0.056276407983561656		0.6326878003478663		-0.7798131087142837
O		1.02456165		0.85941738		-2.05940914		-0.3254769212626669		-0.1647428669143951		0.676252674495108
O		-0.93527786		-1.21511877		1.90560055		0.7774258394652903		2.516775970370568		-1.5090966877217584
H		-1.10296902		0.84497967		1.5777662		0.15596321823878107		-0.4078736800856185		0.043058881052786054
H		1.28354789		-0.04119861		0.51391481		2.2519115196629835		-0.03410115777492614		0.6032589025887245
H		0.20322922		-1.24993082		-0.30790379		0.7414849545622816		1.064261240527417		0.13984157890938081
H		-0.76726422		1.25541295		-1.16905652		-0.5183407657779239		0.45256166349871385		-0.2976632933290368
9
Lattice="50.0 0.0 0.0 0.0 50.0 0.0 0.0 0.0 50.0" Properties=species:S:1:pos:R:3:forces:R:3 Energy=-7255.308423121051
C		-0.49395858		-0.55656691		0.7987203		1.2905776049219233		2.0701735068444407		-0.06910107035726007
C		0.43242032		0.61149935		0.36274736		-1.1810701063368978		0.937799425155825		-0.0987884668243112
C		0.91974515		0.52970038		-1.05672673		-0.3716597440310286		0.6655072117942968		0.13970114525684443
O		0.25540762		0.05138561		-1.94791529		0.0438615794475472		-0.3646134302362991		-0.46778912458426397
O		-1.05399187		-0.62236779		1.84407821		-0.9239146455427676		0.2784970051043506		2.3480050076166328
H		-0.64879252		-1.33966273		0.11685261		-0.017830291620311464		-1.8333931126968832		-2.278391002186487
H		-0.12571351		1.62353015		0.53175541		0.4129667268383875		-1.276904684206138		-0.44302554486247636
H		1.29925646		0.78473896		0.98579195		0.7180296035311485		-0.29934001251916986		1.0195155101381965
H		1.92342278		1.0290254		-1.23427908		0.029039324214061062		-0.177726012084548		-0.15012645419687495
9
Lattice="50.0 0.0 0.0 0.0 50.0 0.0 0.0 0.0 50.0" Properties=species:S:1:pos:R:3:forces:R:3 Energy=-7255.171715878465
C		0.21298759		-0.09036065		1.18996576		-0.6520075834289498		0.29870700693047614		0.6387561693590232
C		0.41677846		-0.870886		-0.15920199		0.8275172017780081		0.9786557964299814		1.5525238021637107
C		-0.19993921		0.11776592		-1.14884498		3.070020129519617		1.1986630337169648		-1.4815345136734825
O		-1.27739067		0.01432739		-1.65812579		-1.1417705894253158		-0.27011078662850063		0.05804008188128864
O		0.8856536		0.75526015		1.7574334		0.3701256182200546		-0.8467399514272584		-1.1345627075103857
H		-0.79013866		-0.30472433		1.6145722		-0.5988721892856954		-0.29317373590111834		0.22566628668108077
H		1.52731096		-1.09470172		-0.12848652		-0.6562870303097195		0.39685089820204345		-0.9362406167548775
H		-0.18507286		-1.79135286		-0.1530505		-0.12836885397941497		-0.1423955070627573		0.12713503301311777
H		0.54265362		1.02658184		-1.50233627		-1.0903567030885841		-1.3204567028377683		0.9502164134184621
9
Lattice="50.0 0.0 0.0 0.0 50.0 0.0 0.0 0.0 50.0" Properties=species:S:1:pos:R:3:forces:R:3 Energy=-7255.063584050337
C		-0.06224609		-0.42591326		1.32182296		-0.4099664037609288		-0.007019677166383089		0.20417294444252387
C		0.43900261		0.60101684		0.4196208		0.734178907930144		2.6622941335973396		-1.6434944699904355
C		0.01467214		0.57298005		-1.06677002		-1.3622865965981268		-0.706568705675545		0.21601981629883707
O		0.79959519		0.17608057		-1.87147342		1.1008174932517012		-0.2841186706590507		-1.5604153918209056
O		-1.16185676		-0.89493686		1.25588132		-2.163002105209353		-0.7498648481244506		-0.476069310767353
H		0.5530384		-0.79633791		2.12234748		1.6531717421880832		-0.22321365999072024		1.1335941215421779
H		0.05576182		1.6199841		0.62684632		-0.38067613988213783		0.09430723977050878		1.0117662567498484
H		1.54159847		0.80067552		0.43719961		-0.23526200348769163		-0.6715365000379958		-0.0022474012391439
H		-1.06596506		0.87287579		-1.45436664		1.0630251569903726		-0.11427931171370281		1.11667343478445
9
Lattice="50.0 0.0 0.0 0.0 50.0 0.0 0.0 0.0 50.0" Properties=species:S:1:pos:R:3:forces:R:3 Energy=-7255.1463400618095
C		0.02678969		0.1296559		1.26774975		-1.5409177912478882		-1.4027560682744493		0.10476211639644498
C		0.16189639		-0.9139617		0.08118973		2.1494592823115526		0.5679128681040756		1.0598347779701185
C		-0.71033482		-0.48374816		-1.0327414		-1.7821188372596883		-1.1490118442587731		-0.08104024481566141
O		-0.37666331		0.27092198		-1.91552632		-0.5064246798255603		-0.050211638516775924		-0.07354424508485342
O		0.8645887		0.92099489		1.61532817		0.018844283269657727		-0.16174084690887583		-0.22566243002639744
H		-1.02771564		0.04204412		1.75321245		0.800725998711965		0.38762989396446684		-0.0875165964702542
H		1.23345635		-0.81651264		-0.16806742		0.1600838737907215		0.2629751012892424		-0.49745687782346115
H		0.07155471		-2.00247202		0.29967284		-0.7124621882523278		0.3020878018479628		0.5694082216799663
H		-1.80788114		-1.03179302		-0.88752752		1.412810058501567		1.243114732753127		-0.7687847218259021
9
Lattice="50.0 0.0 0.0 0.0 50.0 0.0 0.0 0.0 50.0" Properties=species:S:1:pos:R:3:forces:R:3 Energy=-7254.85184909208
C		0.21594947		0.58701912		1.00635632		2.276092898793773		-0.5614152277156308		1.4452521862758412
C		0.68478005		-0.1596101		-0.30538195		0.3040084673023333		-1.2791095079775774		0.9584281568364373
C		-0.38747935		-0.82604614		-1.23444814		0.7455975882724805		0.8214577802057167		1.8629078338782452
O		-1.34970538		-0.21472922		-1.60351722		-0.9819798213905292		0.5187598555868479		-0.7934384126002454
O		0.84963757		0.57713772		2.0660206		0.7526149514460535		-1.312463503185183		-1.0192402992599927
H		-0.54416371		1.29387168		1.21534262		-2.6393964034113564		1.1383896916637044		-1.717587491325698
H		1.24052299		0.62181053		-0.88431536		-0.05308140097768754		-0.2631695281073457		0.061622914082120374
H		1.41249973		-0.99218642		0.0724229		-0.7100372780536247		1.3703826917976643		-0.5427536470338388
H		-0.2886123		-1.92518618		-1.38803694		0.3061810494406202		-0.43283220084613366		-0.25519129227493165
9
Lattice="50.0 0.0 0.0 0.0 50.0 0.0 0.0 0.0 50.0" Properties=species:S:1:pos:R:3:forces:R:3 Energy=-7255.172460898772
C		-0.03648947		-0.71402382		0.87368382		-0.056879331665725306		2.642292905344739		0.3238188682812013
C		-0.79516326		0.33238765		-0.01665799		0.6355767946601323		-1.2603711027344935		0.14214071074334403
C		0.11579493		1.22022186		-0.86317124		1.0945845736407214		-3.405338102248819		0.9197436477916937
O		1.22162804		0.93409351		-1.29033882		-0.43046997414155097		-0.17353326280106013		0.0607145947710979
O		-0.5376576		-1.72066298		1.26235053		-0.6045011053512002		-1.7740689190722263		0.1446456336712108
H		0.9120568		-0.31903497		1.34639484		0.3317897507586857		-0.13402456093945345		-0.38657928980666006
H		-1.51328128		-0.3200187		-0.56273326		0.024694571313986783		0.32266917380906357		-0.4242943901301969
H		-1.44068719		0.97046863		0.63807983		0.2431119412743062		-0.09647740507186081		-0.0032707002817926496
H		-0.28635682		2.1621884		-0.90426484		-1.2379072719114186		3.8788512737141096		-0.7769191264619606
9
Lattice="50.0 0.0 0.0 0.0 50.0 0.0 0.0 0.0 50.0" Properties=species:S:1:pos:R:3:forces:R:3 Energy=-7255.234020235864
C		-0.64929181		-0.69246483		0.71772373		-1.148091080808639		0.9954623776311445		0.08786014726944699
C		0.20238062		0.65843878		0.42424227		-1.1349085208803258		-1.311684458939146		1.3390065947999303
C		0.21064556		1.07193415		-0.98293476		1.1878698513422052		0.12603048711180648		-1.5527405975789774
O		0.70742518		0.38736012		-1.87895507		-0.8163996490333475		0.5501201145893488		0.6809422123238736
O		-0.49238411		-1.36179489		1.71253445		0.31703758379631164		0.18659019863082105		-0.48620115399701186
H		-1.58242187		-0.91217947		0.01505672		1.3915177251051063		0.32905461125725416		0.4330162404076231
H		-0.05100327		1.48569748		1.13357987		-0.6133219945208949		-0.28901693063927936		-0.19313694708890058
H		1.19705858		0.40128849		0.7698457		0.9933389035624922		-0.4314963585079463		-0.05963169755807577
H		-0.16327624		2.12570823		-1.171878		-0.17704276714084574		-0.15506004113400304		-0.24911479857790855
9
Lattice="50.0 0.0 0.0 0.0 50.0 0.0 0.0 0.0 50.0" Properties=species:S:1:pos:R:3:forces:R:3 Energy=-7255.385538343485
C		0.62140903		-0.38188687		0.86154725		-0.3145466476694298		0.2212695974979374		1.34886584967657
C		-0.46659549		0.57391835		0.32793156		0.023892798516349636		-1.3022120522382776		-0.23558405986478248
C		-0.74418574		0.29397606		-1.15738023		-4.1383639732727655		0.7877492298775555		2.355133185334774
O		0.00311549		0.29843047		-2.06484465		2.307139123260924		-0.2135601447859216		-1.968907216519171
O		0.56103652		-0.75933087		2.02553861		0.4520481627831414		-0.06593501397254228		-1.0789869765496947
H		1.46765659		-0.67718021		0.14604206		-0.44074723896380325		0.15264736938616205		0.2749443576541739
H		-1.40527803		0.4322344		0.96083222		0.8865695783805823		0.2695217983252596		-0.5363606505424688
H		-0.07535865		1.59880087		0.43608051		0.08562534443560203		0.3246487175249333		-0.013765326161998583
H		-1.92057986		0.1716358		-1.30154614		1.1383828525293993		-0.1741295530371684		-0.14533921444946438
9
Lattice="50.0 0.0 0.0 0.0 50.0 0.0 0.0 0.0 50.0" Properties=species:S:1:pos:R:3:forces:R:3 Energy=-7254.954733467663
C		0.38796363		0.63453725		0.77594004		-1.4384375802944875		1.7166596316309466		-2.1522951576333136
C		0.79345969		-0.24316008		-0.31174072		1.6417178377329724		-3.900778463893512		-2.2166938346461964
C		-0.27556158		-0.71668305		-1.33476443		-0.14879451993543336		3.6483336239737496		2.996343729734281
O		-1.35963811		-0.2215155		-1.12199593		-1.5649180104526847		-0.67395786211439		-1.1069805302798186
O		0.51177101		0.52590631		1.9456576		0.5042945208887901		-0.6561531272591136		2.6831954022089084
H		-0.08543515		1.55310103		0.30146637		-0.07442716189702825		0.25817644584396915		0.2625772487921081
H		1.66485754		0.23064176		-0.81340217		0.11294285231076606		-0.019334386946817793		-0.18689785683042745
H		1.1281264		-1.30539171		-0.08552932		0.5088975668085239		0.7558757272697945		0.8929364524642305
H		-0.04494993		-1.43292673		-2.10310972		0.4587243919944566		-1.1288215370825638		-1.1721855052318342
9
Lattice="50.0 0.0 0.0 0.0 50.0 0.0 0.0 0.0 50.0" Properties=species:S:1:pos:R:3:forces:R:3 Energy=-7255.210475448093
C		1.07038959		-0.22609814		0.32070315		0.4888070698555198		0.18005440307204226		-3.2289443329580867
C		-0.37550219		-0.53028413		0.31167472		-1.1478881693502323		0.8381081411811729		2.0439544770672198
C		-1.31808814		0.5035786		-0.29304093		-0.09498539393002897		-1.7737035138964945		0.7661057866387226
O		-1.29617774		0.84777646		-1.43393925		0.20653311426460894		0.9383103033462126		-1.5887186092110714
O		1.88985837		-0.58770488		1.10342764		0.9866951730946419		-0.5331270769897613		1.970879046925674
H		1.42486022		0.26909237		-0.64688681		-0.2092987470490701		0.32668246009461954		0.20813496293182257
H		-0.62323365		-1.56133962		0.05919473		0.10005082703526517		-0.59511405927399		-1.0395079452181186
H		-0.66396795		-0.59412562		1.37178573		-0.026480665230939636		0.07360636293628658		0.6501523268380089
H		-2.13683334		0.77134998		0.41864847		-0.30343326011182736		0.545182979529912		0.21794433840789101
9
Lattice="50.0 0.0 0.0 0.0 50.0 0.0 0.0 0.0 50.0" Properties=species:S:1:pos:R:3:forces:R:3 Energy=-7254.826095213657
C		-0.09276873		0.60366547		1.21535988		1.8709463877899069		-1.1601333565022418		1.749762481485572
C		0.24518955		0.63626969		-0.24172042		-1.6409397705061222		4.031006893917113		1.699091283996728
C		-0.61775492		-0.18564439		-0.98581771		0.4589626818318252		-5.2106545117406045		-4.973353520632857
O		-0.15065088		-0.87439037		-1.96924605		-1.8671243401545825		2.2148673229881624		2.7829611967520433
O		0.58477864		-0.0982157		1.97450034		-1.240701598206724		1.0037955285385516		-0.5983166253230433
H		-0.90853353		1.28279075		1.58889744		-0.23749588072441258		-0.14000895772263816		0.024917074578184834
H		-0.0281598		1.7219251		-0.53108639		0.8448271021263797		-0.8686906414891983		-0.06723002719314865
H		1.22046944		0.299642		-0.38828126		2.454982283619069		-0.20770702852815812		-0.5215998960956665
H		-1.63146235		-0.42808793		-0.60783692		-0.6434568657753393		0.3375247505390139		-0.09623191614574998
9
Lattice="50.0 0.0 0.0 0.0 50.0 0.0 0.0 0.0 50.0" Properties=species:S:1:pos:R:3:forces:R:3 Energy=-7255.076710508493
C		0.03475038		0.03119375		1.29427697		-0.4745854757334499		1.6338575641118065		-0.0456799664197153
C		0.19237844		-0.91818		0.15958136		0.4758550350331461		-2.498109658859031		-1.2466697970402385
C		-0.68266848		-0.47127171		-1.03473406		-1.3609030860080533		-0.6863309359356994		1.2580037338236663
O		-0.35828122		0.33124361		-1.86136804		0.43739097237010266		0.3471114684846968		-0.6185772778806767
O		0.80737306		0.93985162		1.47601124		0.6981495770797304		0.46070342148970195		0.632255597913019
H		-0.99120804		0.0808782		1.8587031		0.8145331310107312		-0.7827614955086731		-0.47765074487577613
H		1.19385438		-1.26357436		-0.29725423		-0.4577587370838083		1.48436653234056		0.9327569777125014
H		-0.14774012		-1.90092512		0.53784886		-0.7245514637110049		-0.18173297345642328		-0.13277053110261552
H		-1.75683424		-0.90706088		-0.97673041		0.5918699956205434		0.22289602591099955		-0.3016679921301645
9
Lattice="50.0 0.0 0.0 0.0 50.0 0.0 0.0 0.0 50.0" Properties=species:S:1:pos:R:3:forces:R:3 Energy=-7255.082800233416
C		-0.0049827		-0.94382456		0.58834109		-0.3678941578202685		-1.0985821247751695		2.2268646557991887
C		-0.31658227		0.55993994		0.46944868		-2.4942952216889487		0.053605134683686426		-1.0806818991499334
C		-0.26607033		1.03949582		-1.00236589		5.3515510656831		-0.8612275004562924		0.9405291139186375
O		0.83441365		1.03816442		-1.61895378		-2.7796407713358664		-0.04317447784916165		1.1572725414801956
O		-0.32702793		-1.64300414		1.5483867		-0.15113864607403565		0.8632240648748312		-1.2294560559486385
H		0.78888541		-1.3386985		-0.08910306		0.00048177330304402695		0.23056382675243514		-0.726532550088748
H		-1.27960529		0.95974326		1.0275818		1.6802351222306458		-1.0252918018346677		-0.6842893772125215
H		0.60049233		0.81344712		0.97371366		0.961696903079857		1.1808779935116047		0.5226679323326422
H		-1.16295736		1.35478845		-1.45251218		-2.200996067377528		0.7000048336706713		-1.1263743611308223
9
Lattice="50.0 0.0 0.0 0.0 50.0 0.0 0.0 0.0 50.0" Properties=species:S:1:pos:R:3:forces:R:3 Energy=-7254.703598879898
C		0.05122226		0.99417022		0.79952884		1.5563846220341182		-0.06596283330832486		-0.9406115434847362
C		0.22851592		0.81365985		-0.63101423		-3.4251602788799866		0.9142764541125773		-2.8771417839827502
C		-0.34690827		-0.47181453		-1.14928043		-1.2887497562902654		-4.146311253023589		0.5894714649398748
O		-0.63259283		-1.55093888		-0.5723061		0.9186300516073921		2.8686281930582247		-0.03939865864797509
O		0.69735875		0.31630468		1.53217403		0.9830966057427021		-1.4209496567659325		2.298290826131946
H		-0.59393293		1.76772009		1.11979988		-1.795493869967732		1.688552126610445		0.8834873913797117
H		-0.21236904		1.61527594		-1.34828807		-0.27732689607342237		-0.5934827971870579		1.1831838616357482
H		1.15935683		0.87061861		-1.09781324		3.0572037975200343		-0.2201550757165118		-0.17768847397896337
H		-0.58228233		-0.57513309		-2.22316386		0.27141572430715877		0.9754048422201674		-0.9195930839928558
9
Lattice="50.0 0.0 0.0 0.0 50.0 0.0 0.0 0.0 50.0" Properties=species:S:1:pos:R:3:forces:R:3 Energy=-7255.230690085355
C		-0.15398082		-0.1455037		1.19443801		0.7095843525276122		-0.3847424423140743		-2.1613455948897613
C		-0.67696407		0.56603515		-0.17320864		0.7209556217283745		0.6340620035446375		1.3560365534403531
C		0.16727926		0.10206156		-1.34066782		0.7437243853817465		-1.2918381653606918		0.3897274513136471
O		1.30809281		0.46055566		-1.61196675		-1.0047161377224982		0.2955614165266113		0.3326096755443658
O		-0.72367591		-0.92871985		1.91469586		-0.21630567154396696		0.7790933541062457		-0.2121157504739136
H		0.96804453		0.01612127		1.17085357		-0.03873716523668698		0.1201682177269278		0.7866473579234913
H		-1.76816721		0.36265817		-0.26736624		0.24565815611831604		0.4223955276303029		-0.20026533049529172
H		-0.30269276		1.63772123		-0.08522114		-0.9686643354307964		-0.4699058109406736		0.32157002722430894
H		-0.26712966		-0.81166491		-1.81716084		-0.19149925724416303		-0.10479410091928557		-0.6128643895871998
9
Lattice="50.0 0.0 0.0 0.0 50.0 0.0 0.0 0.0 50.0" Properties=species:S:1:pos:R:3:forces:R:3 Energy=-7254.425045638677
C		-0.05166301		-0.50117821		1.21359061		5.970135234120144		7.373112417263106		-0.46194958375098577
C		1.01770738		0.18230377		0.20891102		0.7732018769898984		0.33149731348956296		-0.15790419540781725
C		0.20282358		0.36553144		-1.09258044		2.2845769734544548		-1.6594083127654966		2.0666645167252797
O		-0.43623168		1.33317117		-1.26203805		-2.2688900048188994		3.3505187898266886		-1.0346151873985716
O		-0.64977765		-1.42645661		0.96172179		-4.466105779275808		-6.47061655196835		-0.5384665382657651
H		-0.09262117		0.38781185		1.9225955		-1.2113627404789227		-1.0047848890199869		1.1566090940305347
H		1.14418549		1.18662834		0.70941029		0.018007954846057765		-0.3333968444762687		-0.6544711115965487
H		2.08893785		-0.17183285		-0.01520909		-1.237254777361058		-0.4055868381245795		0.4019964468805685
H		0.16821047		-0.47706422		-1.78115734		0.13769131394619485		-1.1813350842246753		-0.7778634412166942
9
Lattice="50.0 0.0 0.0 0.0 50.0 0.0 0.0 0.0 50.0" Properties=species:S:1:pos:R:3:forces:R:3 Energy=-7254.920424265398
C		1.23157526		-0.61392388		0.19303616		1.8672313494665298		3.5718813069914637		0.8035771463862719
C		-0.07804847		-0.0038024		0.65461785		-2.2459089194696933		-3.6341675142570575		-2.0784826950707487
C		-1.14410083		0.28073281		-0.51752796		3.4341802742754663		-0.3593814410708047		-0.6726493248913606
O		-2.3004565		0.34641773		-0.33991431		-3.2394440496224743		0.2538009939726154		1.0229926700007046
O		2.3184666		-0.0154493		0.03988388		-2.247207172280234		-0.9142063144194028		0.13075380923559835
H		1.17425794		-1.6634321		0.09649718		-0.04744564577787762		-2.519367025253029		-0.5671643171410687
H		-0.76404752		-0.84500354		1.13308523		1.504088487372023		1.4951612573771926		0.04017652018657548
H		-0.04386377		0.9046268		1.16650042		0.36457614924102677		1.9718158026372283		1.565646506811338
H		-0.76612702		0.36662732		-1.56742163		0.6099295782172958		0.13446288259973174		-0.2448503155173104
9
Lattice="50.0 0.0 0.0 0.0 50.0 0.0 0.0 0.0 50.0" Properties=species:S:1:pos:R:3:forces:R:3 Energy=-7254.995927179064
C		0.066225		-0.99182695		0.58397193		2.6740124502975413		-4.074347876404471		1.256808890780702
C		-0.59965991		0.2011826		0.1198791		-1.3960331478304346		0.7681899228296046		0.4777113714873984
C		-0.0896243		1.27681124		-0.78762289		2.0414596842856545		-0.4321963670440056		0.5219819105975679
O		0.76859413		1.10478798		-1.64419763		-1.0761520782471206		0.4440305890729573		0.34648741033486846
O		-0.17384723		-1.54908498		1.6786524		0.02500444066227831		1.4244162751056395		-2.0179875182401017
H		0.93521735		-1.49088428		-0.04716803		-1.0930929738753892		0.852397972380107		0.33954959709189725
H		-1.59305544		-0.07061494		-0.23436733		-0.8021570747098001		-0.5071485996206562		-0.6757869448755466
H		-0.92922237		0.55069757		1.0990363		-0.2721807817522105		1.1972754093618954		0.5886273203627832
H		-0.43072595		2.27084178		-0.36620238		-0.1008605188305188		0.32738267431892853		-0.8373919861175061
9
Lattice="50.0 0.0 0.0 0.0 50.0 0.0 0.0 0.0 50.0" Properties=species:S:1:pos:R:3:forces:R:3 Energy=-7254.952419596505
C		-0.18942915		0.11784548		1.51881166		2.5856308318928427		-0.13112055138495365		-3.120301907729567
C		-0.46301888		-0.6357896		0.22461164		0.45200908201568346		-2.6129106473962347		1.4974224911511342
C		0.1886107		-0.12900469		-1.02316452		-1.28786282855722		1.9497761524072599		-2.3526318619512785
O		-0.42608855		-0.13699292		-2.0969332		0.3757733547604141		-0.7955133956640124		0.8898218181419574
O		0.84386912		0.75498735		1.43940359		0.43796864781960604		1.1351516443915644		1.3126862121376308
H		-0.69118268		0.00013592		2.45544845		-1.4555339248175265		-0.30749303194183325		1.3534603081118757
H		-0.02921321		-1.71423309		0.43046555		-0.3016125077247867		1.3677339413611396		-0.1627617291145897
H		-1.48883294		-0.9105786		0.04082815		-1.1816146659781868		0.05837329684593004		-0.43987393807730557
H		1.10319192		0.52488012		-1.07222108		0.37524201058917345		-0.6639974600409216		1.022178607330143
9
Lattice="50.0 0.0 0.0 0.0 50.0 0.0 0.0 0.0 50.0" Properties=species:S:1:pos:R:3:forces:R:3 Energy=-7254.71187178237
C		0.05407845		0.89433971		0.87141825		-1.1621819600479748		-0.6682207026074392		-3.4894180594417707
C		0.09008346		0.82860173		-0.73573269		-3.106618394068918		-2.153947451343785		3.4767780022722485
C		-0.07712626		-0.65522378		-1.17139158		-1.9163421958925528		1.079859763215568		0.7759270920332781
O		-0.88553873		-1.40478864		-0.63754886		1.091374037171989		0.223280354405711		-0.5912076794562563
O		0.85042232		0.42087955		1.58798135		3.072796818047504		-1.112459756721547		1.9825649677265351
H		-0.86879169		1.22703159		1.26465079		-2.2465958153798296		1.3052149978409209		0.8542299861988228
H		-0.85594256		1.36957478		-0.96428571		0.7286992186898537		0.305779854509427		-0.8775619242800887
H		1.04460642		1.13721438		-0.9120682		3.038887721675809		1.7897717257030148		-1.6990276234834218
H		0.43716176		-0.83812991		-2.13331795		0.49998062122618275		-0.7692787850018704		-0.4322847101472854
9
Lattice="50.0 0.0 0.0 0.0 50.0 0.0 0.0 0.0 50.0" Properties=species:S:1:pos:R:3:forces:R:3 Energy=-7255.316430227654
C		0.48010506		0.07912898		1.04843403		-0.6364327148895237		0.49460501024028025		-0.5215073878053287
C		0.49243854		0.58309762		-0.36805142		-2.232149609689001		0.7221690281358812		-0.32815287397022463
C		-0.69625135		0.14908645		-1.3322271		2.014652026159629		-1.1216318585777387		0.033967768944944694
O		-1.69776409		-0.46417184		-1.03337966		0.2802935376999797		0.7738004297967543		-0.167644922430522
O		1.4344074		-0.31710938		1.64570347		1.9125117664610503		-0.7951541097137115		0.6546641500189659
H		-0.46325898		0.17051388		1.61471675		-1.050048079623588		0.09015794212978666		-0.09437557969149774
H		0.19062823		1.66357499		-0.27116206		0.3544491911073001		0.009181717781868853		0.0524704040317201
H		1.45987322		0.57148247		-0.88388935		0.3277972389863573		-0.2507419983219074		-0.08036635868732413
H		-0.30078679		0.32907289		-2.41189082		-0.9710733047901413		0.07761388995084878		0.4509448510113289
9
Lattice="50.0 0.0 0.0 0.0 50.0 0.0 0.0 0.0 50.0" Properties=species:S:1:pos:R:3:forces:R:3 Energy=-7255.248307282688
C		-0.15469027		0.00150124		1.16830901		0.19915440825823724		1.2141238481218888		-1.4470879024830532
C		0.35769547		0.56350352		-0.17262418		2.8900738156228334		1.3679851381361816		1.4186706823804476
C		0.44616371		-0.32040429		-1.37761855		-0.5817297705947063		0.21222666786260666		-0.5543986358729943
O		-0.55361935		-0.81138568		-1.85991222		-0.46805291976460506		-0.5217945286020196		0.05817069391989807
O		-0.04030985		0.55105117		2.2220008		0.6323097967668357		0.8246691394274481		1.3005984793408267
H		-0.76027755		-0.8589398		1.07916505		-1.2916630732380678		-2.3119020403727983		-0.33234557183165003
H		-0.32712682		1.38355758		-0.44030692		-0.368756454385403		0.20273785752381826		-0.030039277640359942
H		1.37865039		1.12125005		0.11283641		-1.6747681342397789		-1.0037464718909792		-0.7103819087161288
H		1.39927751		-0.42740532		-1.94812495		0.6634323829967174		0.01570033837179117		0.29681349232507637
9
Lattice="50.0 0.0 0.0 0.0 50.0 0.0 0.0 0.0 50.0" Properties=species:S:1:pos:R:3:forces:R:3 Energy=-7254.860461195605
C		0.2361964		0.10776705		1.06498845		-2.0642336929893954		-1.0028660233378017		2.6500858160641028
C		-0.66371805		0.82139624		0.02346172		0.659874130541734		-4.652088014862346		-1.1620646663235386
C		-0.19185153		0.31531877		-1.41314516		1.0028016943376836		-1.687383405975203		-0.28850970341532517
O		0.80215246		-0.42806119		-1.57293799		-2.633357293553731		2.0837058910635653		-0.010712655424971294
O		-0.22987328		-0.73264331		1.89532534		1.7929404046129176		2.5164881096650027		-2.828253903619488
H		1.3056601		0.54010412		1.12603808		-0.6100318566994981		-0.7036463384447524		-0.08298533574969315
H		-1.74996157		0.55682397		0.09852134		0.393926576932878		0.608335340015324		0.2614708516965487
H		-0.3572162		1.78790278		-0.16644807		0.2119128390155069		3.447502599369504		0.31952342913901144
H		-0.90355366		0.71085831		-2.30641112		1.2461671978019044		-0.6100481574932931		1.1414461676333527
9
Lattice="50.0 0.0 0.0 0.0 50.0 0.0 0.0 0.0 50.0" Properties=species:S:1:pos:R:3:forces:R:3 Energy=-7255.0834759500585
C		-0.490125		-1.11229423		0.7617882		-0.1085874036217033		-0.4118904630714208		0.9915170198900779
C		0.44231044		-0.25537613		-0.00679522		0.7937524471355949		3.207925822044144		0.782493997939836
C		0.01433186		1.12151384		-0.83981302		2.158474032656664		-3.1507712795002147		-0.993261616202638
O		0.57419145		1.34049438		-1.90729482		-1.089100924901623		0.30593828588381894		1.5945325418572518
O		-0.57996229		-1.09906956		1.98678953		-0.24678661327866408		0.021150099971738764		-0.9395157393340404
H		-1.03746525		-1.87607042		0.1246819		-0.20976046574776072		0.1264788874963239		0.17442924081709588
H		1.28842472		0.08510432		0.69260739		-1.0354163431314594		0.05921055086665401		-0.2334805375563588
H		1.00897449		-0.78649104		-0.7171815		0.6454447912873875		-1.33873966287378		-1.7344324333854446
H		-0.77092763		1.67921323		-0.35125447		-0.9080195203984359		1.180697759182736		0.35771752597422035
9
Lattice="50.0 0.0 0.0 0.0 50.0 0.0 0.0 0.0 50.0" Properties=species:S:1:pos:R:3:forces:R:3 Energy=-7254.946386038627
C		0.50409506		1.0431381		0.68941209		1.3777307502548188		2.4198165348853506		2.699260940068182
C		-0.52658698		-0.0880198		0.66077701		2.852499971704832		-1.7607602722467992		-0.9545469224072394
C		-0.87127582		-0.4075863		-0.81635129		-2.1329103770652997		1.652917665777544		0.16103081107063996
O		-0.89173128		-1.48382478		-1.32726846		0.6683298716460092		-1.4753073533334966		-0.40765148535379514
O		1.7401777		0.97201785		0.8085737		-2.272032252788705		-0.9787048530775535		-0.8989398239884573
H		0.10565556		2.1418527		0.90962451		-0.19480091360754734		-1.285515154296309		-0.9155318723451014
H		-0.04837166		-1.00141166		1.17200729		-0.199540742213384		0.7281925056865239		-0.9245187005103048
H		-1.45557081		-0.00542244		1.19158405		-1.1146909600110209		1.0973339056313878		0.5014097431856447
H		-1.42077868		0.46539928		-1.4010628		1.0154146520802971		-0.39797303044871085		0.7394873102804312
9
Lattice="50.0 0.0 0.0 0.0 50.0 0.0 0.0 0.0 50.0" Properties=species:S:1:pos:R:3:forces:R:3 Energy=-7254.748735331498
C		0.90554551		0.90786371		0.34152031		-2.019125745592315		1.6427680305142796		2.1421343123604357
C		0.01070719		0.63403206		-0.88594061		-1.246973752851349		0.20162199876876918		-1.0738221445977532
C		-0.87667767		-0.58836535		-0.51903646		1.2432151600410815		0.10478895871304111		-1.918956236436927
O		-0.46055537		-1.71700102		-0.4923704		0.42676635151603665		-0.6457265327675219		0.6206539064504419
O		0.45751019		0.80959921		1.51396931		0.9184036916885107		-0.5097771926087024		-2.8704179379416117
H		1.85147033		1.47224642		0.22685073		0.6983830332432291		-0.24065160127457896		-0.47044348002559483
H		-0.76123391		1.45855363		-1.23360731		1.2459657261612462		-0.5075109708947038		1.5086597544571663
H		0.42056734		0.50920973		-1.96187446		0.495345333673296		-0.43980688370787774		1.533450793560299
H		-1.93562483		-0.3980819		-0.57536044		-1.7619799007238617		0.3942941932572949		0.5287409807514815
9
Lattice="50.0 0.0 0.0 0.0 50.0 0.0 0.0 0.0 50.0" Properties=species:S:1:pos:R:3:forces:R:3 Energy=-7254.980666577291
C		0.85068689		0.28384347		0.79772554		-1.266835627314724		2.5904615232830186		-0.22515617982162975
C		-0.56190116		0.54811484		0.0177186		3.68886300235282		1.5810640752617462		0.5678397973533418
C		-0.97645677		-0.45309423		-0.99637618		0.6409739514901991		3.8005085274501704		0.3180196937669422
O		-1.03321265		-1.59730917		-0.75022939		-0.49292993655614553		-4.088518048464096		0.04646039906143792
O		1.66899071		1.20345358		0.90083914		-1.1604133496322528		-2.019269675945097		-0.2814285768843207
H		0.86469625		-0.66981444		1.33033633		0.6582263619727573		-0.9682663800895371		0.35839516591311604
H		-1.35136981		0.73870224		0.72452353		-0.7657009921631583		-0.0701433441409509		1.0540129263263212
H		-0.235566		1.55379704		-0.36532184		-0.8334325387313296		-0.2982069787952642		-0.46965667104812914
H		-1.17692949		0.11530993		-1.92424085		-0.46875087141816646		-0.52762969855999		-1.368486606089142
9
Lattice="50.0 0.0 0.0 0.0 50.0 0.0 0.0 0.0 50.0" Properties=species:S:1:pos:R:3:forces:R:3 Energy=-7254.841365800076
C		0.729814		0.06695663		1.18452019		2.6272643447967257		1.3202108539572204		-1.5209340979185817
C		-0.73075731		0.10383548		0.81589757		0.16263852185297228		0.8864831378936128		-0.6861350692998477
C		-0.70268035		-0.56114036		-0.5740648		-0.17955170098958323		-4.263054761391701		1.2538025513219373
O		-0.93306104		-0.13482595		-1.64889494		-0.6745246360866551		2.557188312135515		-1.9648172599385103
O		1.56260099		0.49861701		0.35823311		-1.3183577570929024		-0.5560489755450932		0.8374426882710765
H		1.24661557		-0.30605985		2.09484982		-0.9749034256892695		-0.4522480403398638		0.8224254919988626
H		-1.47667318		-0.26520771		1.58163494		0.4420616383019512		0.10752780060296863		-0.7133619200789219
H		-0.89553909		1.15617753		0.44064714		-0.28323950765743433		-0.247667113253904		0.9252210744612365
H		-0.48445969		-1.70731691		-0.62655108		0.19861257398625787		0.6476087859412463		1.0463565411827485
9
Lattice="50.0 0.0 0.0 0.0 50.0 0.0 0.0 0.0 50.0" Properties=species:S:1:pos:R:3:forces:R:3 Energy=-7254.869274823072