9
Lattice="50.0 0.0 0.0 0.0 50.0 0.0 0.0 0.0 50.0" Properties=species:S:1:pos:R:3:forces:R:3 Energy=-7255.112877674098
C		0.75048553		0.98134542		0.29765216		1.5173050887056747		2.947815958074318		-1.3291828211463774
C		0.4768091		0.068888		-0.80641789		0.7530544558137682		0.22487649522399325		-1.2885402113858035
C		-0.46275293		-0.96926002		-0.36631579		-0.1803711115546389		-0.738781285363066		0.3072435835169142
O		-1.63270227		-0.85188689		-0.63462237		-0.8584480351370336		-0.7275041699586398		0.12790039899054412
O		0.89002989		0.75029122		1.44075186		-0.19658505348612734		-1.830138198988261		4.037550608473509
H		1.03397753		2.0429616		0.05029682		-0.34220307835816666		0.3418762397292684		-1.0456326213876523
H		0.18150121		0.70797039		-1.65310508		-0.6323361762848697		-0.2795532656890264		-0.28391992438770214
H		1.46415963		-0.31935466		-1.0904077		0.500606067771697		-0.3610272556014085		-0.018623939732082356
H		-0.00285198		-1.78303996		0.32475368		-0.5610220546261789		0.4224355339948848		-0.5067950729413492
9
Lattice="50.0 0.0 0.0 0.0 50.0 0.0 0.0 0.0 50.0" Properties=species:S:1:pos:R:3:forces:R:3 Energy=-7254.940126081438
C		1.39371837		-0.09891213		0.2486199		2.3803915995634664		-2.2419252008700434		-2.855275683213532
C		0.14080458		0.383957		0.9059845		0.8907437128774653		-0.5861184379361082		0.4051992186178717
C		-1.3021075		0.26529108		0.47817114		-1.230492519039273		0.10562641842201485		-2.754309132090253
O		-1.79159113		-0.01549857		-0.63713692		1.496009258608968		0.30653411332136526		2.6996232599201666
O		1.54753874		-0.52661163		-0.91840786		-0.6573954842877765		1.268813576946658		2.850332943149289
H		2.39006935		-0.16606151		0.98919504		-1.9375841870898804		0.4675017266772607		-1.0244809787540403
H		0.34731949		0.06160544		1.94303376		-0.7357225982447326		-0.09219965511915192		0.5024607072978886
H		0.32335269		1.45153695		1.01255201		-0.05046844029662456		1.1192707117364673		0.1070459244557997
H		-1.95787016		0.70093976		1.29063472		-0.15548134209161216		-0.34750330460052514		0.06940384346093423
9
Lattice="50.0 0.0 0.0 0.0 50.0 0.0 0.0 0.0 50.0" Properties=species:S:1:pos:R:3:forces:R:3 Energy=-7255.009401672478
C		0.96143134		-0.24490392		0.52989169		0.5885240134393319		-1.2318925361113913		2.1654297921994283
C		-0.36873504		0.40211821		0.55653426		-0.4608417982597404		-0.4182411392053988		3.10164757755858
C		-1.05649026		0.21474155		-0.67944746		0.7856027701469903		2.465040541877369		-4.6097059509954565
O		-0.73302591		0.8157388		-1.74816506		-1.0655337823067352		-1.5733114794393395		2.513443512191779
O		1.15322215		-1.15070208		1.34536399		0.890142691811612		0.7746394835896637		-1.543844683620176
H		1.69469389		0.26527298		-0.12589349		0.6908947982438504		-0.35799232547592463		-0.41484250083224383
H		-0.83117383		-0.24332037		1.37105497		-0.18160184719718936		0.9758637841274859		-0.4574563239345713
H		-0.20629393		1.43439977		0.92325147		-0.16909199068977718		0.2563317307758294		-0.28827455032376575
H		-1.8021248		-0.57085778		-0.62421614		-1.0780948551883425		-0.8904380601382942		-0.4663968208215123
9
Lattice="50.0 0.0 0.0 0.0 50.0 0.0 0.0 0.0 50.0" Properties=species:S:1:pos:R:3:forces:R:3 Energy=-7254.964038082859
C		0.91220774		-0.613402		0.59178321		1.6642017231604005		3.258996311847871		1.0934661437825501
C		0.47889383		0.21462776		-0.62087388		0.9315694366024045		-1.631903885693346		-0.9035724890161593
C		-0.89874078		-0.22929945		-0.77658633		-1.6644452580481384		1.848074677167521		-0.7022705411640456
O		-1.8839145		0.50648481		-0.73789772		0.6092031901632025		-0.9050212027814126		-0.08828268235655476
O		1.41282854		0.08278692		1.48844469		-0.573691833747794		-2.5220348532747208		-0.3450504207998524
H		0.76057344		-1.75179121		0.53499032		0.2286449610702502		0.6378852853094605		0.4202035593744743
H		0.59310416		1.27933448		-0.57532209		0.08469815322766235		1.148601290512215		0.8396766683519225
H		1.17636355		-0.07969089		-1.45009631		-0.4576400549636861		-0.4191502812694203		-0.08206760620124329
H		-0.92091414		-1.31663971		-0.82278279		-0.8225403174643015		-1.4154473418181666		-0.2321027348152165
9
Lattice="50.0 0.0 0.0 0.0 50.0 0.0 0.0 0.0 50.0" Properties=species:S:1:pos:R:3:forces:R:3 Energy=-7255.191713260338
C		-0.3866114		0.58762621		1.02436727		0.3323620783136948		-1.2411386857375035		1.5115880352251398
C		0.47687063		0.77490101		-0.14476666		1.2144810771896917		-1.6214953403456724		-1.6484268742201271
C		0.38977855		-0.24412203		-1.38848165		-0.8995314348168831		1.297367322625054		1.115725057686783
O		-0.48049515		-1.06048648		-1.52360028		-0.08024711092451496		-0.5446967839294977		-0.07449874140795122
O		0.03451474		-0.00238131		2.01230905		-0.9263367789500985		0.4268843137272847		-0.10609055395764036
H		-1.42793943		1.0755791		0.94800183		0.40509699155773177		-0.41797153333200143		0.2121400216873874
H		0.07365301		1.68515724		-0.51496743		0.15382076942908673		1.8164953087569433		-1.3155404451356842
H		1.57847279		0.80322741		0.07363765		-0.5542902895874234		0.32489209814648384		0.2537022121906592
H		1.1332731		-0.0189296		-2.20027572		0.35464464636665227		-0.040336648489028154		0.05140128793143315
9
Lattice="50.0 0.0 0.0 0.0 50.0 0.0 0.0 0.0 50.0" Properties=species:S:1:pos:R:3:forces:R:3 Energy=-7255.112182118128
C		1.14732461		0.22187904		0.09741109		-0.21636532113640275		-2.230189966311297		-1.3782033704307477
C		-0.0932912		-0.03897194		-0.87857056		0.46008671669480306		2.714884402456618		1.6358218354751297
C		-1.2376618		-0.30805631		0.10505512		-0.10047253936937384		-1.6170987025845918		-0.3394589399958073
O		-2.00635102		0.52088482		0.54848514		0.4494433782100071		-0.04977264836968586		-0.23092110724230067
O		2.17885714		-0.42369481		0.06636115		-0.4550103306902662		0.7519772150276148		-0.0432500682809553
H		0.87473924		0.90533619		0.91117784		0.04871119415670317		0.8703474603411652		0.5855129431508224
H		-0.31839057		0.96326503		-1.27637436		-0.18124749776488325		0.7140588432912343		0.19551614307409015
H		0.13388947		-0.51497523		-1.81670462		0.17886357094994879		-1.7934226407145233		-0.2835627981640239
H		-1.24193801		-1.40431172		0.47871805		-0.18400911962847374		0.6392160368634658		-0.14145453474208247
9
Lattice="50.0 0.0 0.0 0.0 50.0 0.0 0.0 0.0 50.0" Properties=species:S:1:pos:R:3:forces:R:3 Energy=-7255.218093467774
C		0.31942907		-0.10024953		1.38386087		0.44364754612980695		-1.37639151406051		2.0446884241644923
C		-0.25762291		0.76978699		0.3426928		-2.045229641371722		-0.9875743360962583		-1.4595997644509007
C		-0.61242604		0.08165904		-1.027871		-1.6307781024802455		0.09428435695272089		2.3116745491685426
O		-0.17426875		0.54671197		-2.02702996		0.804764121853682		0.1841037876454344		-2.12701231792496
O		0.70081388		-1.27201775		1.36888689		-0.6349362814503215		1.3129704218767624		-0.845634582772948
H		0.41803767		0.47133377		2.35386909		0.13082759989520643		0.07588569727620861		0.19140680037588753
H		-1.24992397		1.30537541		0.66629196		1.5637131915296063		-0.6160265893172342		-0.07550851644817701
H		0.53215411		1.48959991		0.12164971		0.21477853913348544		0.8013107189840234		-0.1663906869054343
H		-1.49865606		-0.70382947		-1.02044928		1.1532130267605019		0.511437559582978		0.1263760433714346
9
Lattice="50.0 0.0 0.0 0.0 50.0 0.0 0.0 0.0 50.0" Properties=species:S:1:pos:R:3:forces:R:3 Energy=-7255.076266284208
C		0.96097601		-0.68848291		0.96381916		1.2166996820738667		3.8457491951904212		-1.4350892841204659
C		-0.54467267		-0.23468249		0.63541162		1.2332845313417684		-0.1851519749663063		-1.078903621386472
C		-0.81203775		0.65642812		-0.69600133		1.3202003638564817		-1.4490609155969922		1.7123208436901163
O		-1.62696587		0.27797769		-1.50628721		0.3602087192114144		0.9047967454788417		0.017283675096524717
O		1.98545733		-0.04074683		0.62342172		-2.740569002738852		-1.785199892975185		0.390431367926452
H		1.06436914		-1.43129309		1.75079082		-0.1537704272299534		-1.251086952204235		0.5675986793025387
H		-1.25284628		-1.09041183		0.72465638		0.14135724419993717		0.08476366493521685		-0.34939589360880086
H		-0.73856171		0.37573425		1.52058337		-0.18625184145993517		0.6346920266537095		0.5433782708263541
H		-0.04940068		1.55954103		-0.74496526		-1.1911592692547275		-0.79950189651547		-0.36762403772624674
9
Lattice="50.0 0.0 0.0 0.0 50.0 0.0 0.0 0.0 50.0" Properties=species:S:1:pos:R:3:forces:R:3 Energy=-7254.684242882308
C		0.98309003		0.21525357		0.91677405		-2.5726824994589648		1.3115282901355017		-2.949090813846446
C		-0.40699005		0.55376524		0.21372935		2.5153494709362905		-1.3901786431769851		-2.9186934843852836
C		-1.32247643		-0.5281512		-0.2992953		1.7856692221391173		-0.409599610189511		-2.015560448314776
O		-1.19595592		-1.16939808		-1.3501829		0.246292807213008		0.8606206172753205		1.228856166168159
O		1.88434579		0.93948587		0.62781794		1.817531360471078		0.5933907516952819		0.9402404818821355
H		0.99534275		-0.77643235		1.26368975		0.749689807423889		-2.3044927382392717		1.7625253345402117
H		-0.93670753		1.27500196		0.74777795		-1.2786796709576027		1.8567089556726035		1.2602968492763233
H		0.0730856		0.95743973		-0.755661		-0.8864085759030681		0.12768951711245857		1.0662989940179741
H		-2.16647768		-0.67597001		0.30578773		-2.37676197328581		-0.6456671402853982		1.6251269720837644
9
Lattice="50.0 0.0 0.0 0.0 50.0 0.0 0.0 0.0 50.0" Properties=species:S:1:pos:R:3:forces:R:3 Energy=-7255.1055243784585
C		0.19304599		0.53642264		1.19836979		-1.0499515604123795		0.6869433212773528		-0.34040397465941524
C		0.4454408		0.15687435		-0.21960805		1.6195508150543276		1.1135501615556862		0.22665873248626275
C		-0.78378512		-0.29831928		-1.01885803		0.9117056595227189		-0.9580073186773902		2.6854623952538437
O		-0.61769151		-0.55007801		-2.16702832		-0.9576438161179689		-0.37485680791940046		-2.1575204105086274
O		0.73508765		0.16228073		2.20089619		0.9947986730711712		-0.6738814489295972		0.7461568032015663
H		-0.64754409		1.26763904		1.28571508		-0.5640941114807478		0.4169394411166746		0.04962594122553123
H		0.78968369		1.09499908		-0.74638231		-0.44396564300808966		0.002983353796851885		0.2488303831505271
H		1.45266246		-0.37018822		-0.25360979		-1.1321195939015771		-0.7009504853990287		-0.3449196030729932
H		-1.72846544		-0.54263232		-0.34555009		0.6217195772725451		0.487279783178851		-1.113890267076695
9
Lattice="50.0 0.0 0.0 0.0 50.0 0.0 0.0 0.0 50.0" Properties=species:S:1:pos:R:3:forces:R:3 Energy=-7255.103541214238
C		-0.31503451		-0.44240286		1.26164348		3.483720083546403		-0.16593668151611035		-0.17550622449293685
C		0.38653396		-0.11220179		-0.08373006		-0.13390942694163988		-1.804801520380528		0.5427859400890541
C		-0.42277332		0.31603512		-1.27659717		-0.46188648888036626		-0.5684743970259712		1.63951085423491
O		0.0112637		0.93311112		-2.20740879		-0.18005131774829555		0.4655587440477892		-0.9119273400339178
O		0.30111746		-0.64649555		2.29145238		0.5059566876352514		0.6301821060890629		0.061529428772595984
H		-1.30420637		-0.7464111		1.29661843		-3.5911847378566897		-0.3902046480531335		-0.6481850215730012
H		1.36273877		0.34491773		0.10442968		0.29333165305488595		0.5096404613446619		-0.11322418241440081
H		0.65812593		-1.18681231		-0.42906518		-0.1874886963279166		0.8308630296930325		0.3910666875079558
H		-1.4909679		-0.11767499		-1.13013456		0.271512192096305		0.49317295722325893		-0.7860501420902589
9
Lattice="50.0 0.0 0.0 0.0 50.0 0.0 0.0 0.0 50.0" Properties=species:S:1:pos:R:3:forces:R:3 Energy=-7255.134607167722
C		-0.32927439		-0.84954469		0.97918955		-1.9313847432415518		-0.03640404341944783		1.7469654298209574
C		-0.64009978		-0.54006549		-0.43341144		1.0508155539055748		1.7763978242803453		-0.9486899494947922
C		0.62145509		0.06924617		-1.07744442		1.2269510301766469		-1.759500226028655		-0.5950142490507848
O		0.88609873		1.21072584		-1.31224612		-0.8132070588644082		1.7923442686429965		0.12645461628285004
O		-0.55617612		0.01404181		1.80372685		0.6961569207379374		0.17841640469492998		0.6761370262766699
H		-0.18983352		-1.92049898		1.3552016		0.5951098426648693		0.24513421672406735		-0.6415769780164875
H		-0.96698669		-1.40227787		-0.95622465		-0.24521073275298497		-1.5076441173018216		-1.0452421222454475
H		-1.40631216		0.25281559		-0.51402816		-0.09485421624873264		-1.7174968856516707e-05		0.39408629385883115
H		1.47040493		-0.63689381		-1.35104136		-0.4843766477994128		-0.6887271012014957		0.28687988114614166
9
Lattice="50.0 0.0 0.0 0.0 50.0 0.0 0.0 0.0 50.0" Properties=species:S:1:pos:R:3:forces:R:3 Energy=-7254.869299191845
C		-0.34303654		0.56712046		1.06233561		-0.642235488948154		0.7130298878217166		0.38546667064154483
C		0.50299004		0.81550722		-0.3281866		0.6518947634239464		-1.1227654579443314		4.553189299136153
C		0.361895		-0.18013076		-1.36818411		0.5311400770748372		-2.6777162271892423		-1.0973185818567792
O		-0.46861949		-1.07589309		-1.47392532		0.3463135009196806		0.9633373697159665		0.2574560741711818
O		-0.03460019		-0.06570012		2.06761135		0.5148949733735072		0.5531104617866931		-2.074630668373019
H		-1.34712359		1.13430461		1.12808892		0.5406013766102176		-0.28639178292941697		-0.5381274097639425
H		0.33413055		1.68418731		-0.87807723		-1.389206560508531		2.7558644952130162		-0.8587239659241116
H		1.56145202		1.07561017		-0.00822736		-0.3069851876531298		-0.9609827534766254		-0.29694317876656173
H		1.2193603		-0.10147482		-2.1103837		-0.24641745429237388		0.06251400700222391		-0.33036818784240307
9
Lattice="50.0 0.0 0.0 0.0 50.0 0.0 0.0 0.0 50.0" Properties=species:S:1:pos:R:3:forces:R:3 Energy=-7255.021231108688
C		0.0082435		-1.1088052		0.5716957		-1.6206970642482819		-0.13139077432310037		-0.9600721201727931
C		-0.88389775		0.0548834		-0.14446611		1.559343807461621		-1.7890156156968289		-0.6162444131737498
C		0.17714759		1.0437595		-0.58938176		-0.10487683901775902		-0.4083120017458967		0.02281617479494577
O		0.70978039		1.25232164		-1.64852314		-0.07638438843779692		-0.04490138497224069		-0.7879544553287721
O		-0.06488262		-1.22021449		1.75786301		0.5268743084626778		-0.1325905538840592		1.355313662086506
H		0.51363536		-1.95565912		-0.04492621		-0.23860783140271594		1.1397698083976566		-0.08923558459571679
H		-1.6245691		-0.52414735		-0.76300208		0.5689758649789317		0.706985018693097		-0.4018150298442637
H		-1.364928		0.58514485		0.65092705		-0.8180734885879837		0.13530697575476083		1.168885700062698
H		0.56105045		1.50686589		0.35360765		0.2034456307913066		0.5241485791986736		0.3083060661711458
9
Lattice="50.0 0.0 0.0 0.0 50.0 0.0 0.0 0.0 50.0" Properties=species:S:1:pos:R:3:forces:R:3 Energy=-7255.162334855065
C		0.63333353		-0.07668957		0.95278367		-4.3825893564651865		-2.5570480841712278		-2.430068088676381
C		0.62598532		-0.23331332		-0.56021724		-1.5740920149251867		-0.6880297151906213		-0.6221590816402596
C		-0.76786535		-0.43824407		-1.21013682		-1.7352194480511607		1.6564491787600562		2.2009769383702986
O		-1.81175159		0.02935291		-0.69185948		2.3110835039828044		-1.190593472301649		-1.333289284209083
O		1.37104503		0.6591213		1.46602683		2.9211971217615895		2.4461015905907506		2.817258941071695
H		-0.31435298		-0.59387176		1.4084903		1.0493952251187906		0.23539138139680235		0.369620653566848
H		1.05408605		0.7107234		-0.87913243		0.5098584908894273		0.5295964381823108		-0.7751629601853506
H		1.19597623		-1.08679306		-0.92053898		0.9331372438642798		-0.4018882548611849		-0.08846317379573551
H		-0.79799418		-1.04152791		-2.15524193		-0.032770766175357874		-0.02997906240523724		-0.13871384165790696
9
Lattice="50.0 0.0 0.0 0.0 50.0 0.0 0.0 0.0 50.0" Properties=species:S:1:pos:R:3:forces:R:3 Energy=-7254.717006587813
C		0.92637146		-0.06680817		0.94227819		-0.9740234913567166		-2.355942208643216		-1.983351313905439
C		0.48402485		0.00589909		-0.62116777		0.7103476616225407		1.547325700137367		4.221145266278679
C		-1.03658017		0.17602443		-0.59798659		3.3374450904045707		1.5795850224796504		-1.5925878622997198
O		-1.53804811		0.95865234		-1.35273906		-1.7583148446451806		0.5754766421131856		-0.5789431576087676
O		1.1732362		-1.06861404		1.57718125		0.26358856649420725		-0.0883358013470601		-0.3119311158852446
H		0.79781338		0.85709301		1.43046471		0.05526473032702541		2.539579803870527		1.2202635395336563
H		1.20593796		0.7736996		-0.94512745		-0.7571298599507573		0.5813942930593172		-0.9261244572542643
H		0.79541714		-0.906995		-0.96955832		0.7510152110834001		-3.1160131020334325		-1.399437494052521
H		-1.46437993		-0.34930179		0.22082738		-1.6281930125570272		-1.2630703496363387		1.3509665437715594
9
Lattice="50.0 0.0 0.0 0.0 50.0 0.0 0.0 0.0 50.0" Properties=species:S:1:pos:R:3:forces:R:3 Energy=-7255.311786549806
C		0.83306244		-0.64129773		0.834577		1.4816306729302542		1.4717975918833988		1.702276520810738
C		0.38003549		-0.56754745		-0.59100005		0.8823817656150892		1.8562712510770751		0.024185287207534868
C		-0.74632914		0.49779924		-0.60227669		-0.9473979187538079		-1.615469240269845		-1.876651357085767
O		-1.84316108		0.35835784		-1.13237503		1.204839594747505		0.06181209584985428		0.6091380384100851
O		1.39170277		0.30064621		1.46002009		-1.6116119685217463		-2.423253225584715		-1.6847884430159956
H		0.61529334		-1.6446431		1.27373112		0.11343568135723571		-0.11801548450474453		0.6902366986886836
H		1.34355592		-0.22529734		-1.08622771		-0.8801932940595069		0.2957339889681756		-0.1277162565849298
H		0.09130756		-1.4886039		-1.05940232		-0.5184687552913487		-1.073778178734363		-0.2105834244351251
H		-0.44763029		1.3715752		-0.05465497		0.27538417055426306		1.5449011498931016		0.8739028845827138
9
Lattice="50.0 0.0 0.0 0.0 50.0 0.0 0.0 0.0 50.0" Properties=species:S:1:pos:R:3:forces:R:3 Energy=-7255.015289432415
C		1.0830455		0.04423886		0.48059355		-0.1849639244839462		1.8860922934844198		2.032980700409154
C		-0.37716992		0.3891883		0.86526786		-0.45896715555125794		1.8831028204621367		-3.845222119050363
C		-1.02737985		-0.10807306		-0.60320745		-0.3688422778076232		0.38072015716759045		1.0413723035141125
O		-1.29689866		0.67231528		-1.49132659		0.29264110617831657		-0.3255701494618792		0.5870880009235023
O		1.58997453		-0.98900138		0.81554081		0.5263232182194584		-1.4530439142877685		-0.20489429313449758
H		1.73411604		0.90441319		0.08134132		-0.6498707396240619		-0.36532871112490434		-0.42220408329182146
H		-0.79735787		-0.06807173		1.76805512		0.08006980765320577		-0.5069314442509524		0.07385303456983361
H		-0.59917884		1.54813046		0.78261659		0.5442493605641668		-1.880998732511026		0.40921831559648386
H		-1.16018605		-1.23378729		-0.7545682		0.21936055342967933		0.3819576805223837		0.32780814046359563
9
Lattice="50.0 0.0 0.0 0.0 50.0 0.0 0.0 0.0 50.0" Properties=species:S:1:pos:R:3:forces:R:3 Energy=-7255.244582908944
C		0.69158457		0.11038619		0.98460379		-1.0894979546457582		-3.207995704627006		-1.6224331759205384
C		0.36073876		0.45515914		-0.4417345		1.7639914289625718		0.6489984157567508		-0.7410644249356089
C		-0.90358445		-0.10629519		-0.97935626		0.938899085961204		-3.001042626378412		-1.7412094498391517
O		-0.84741145		-1.26785572		-1.47266241		-1.3243020960894423		2.854848108764305		1.2358643247925547
O		0.69566915		0.8521125		1.8919014		0.41681206866799925		2.3751996167625538		2.6693694494352878
H		0.77647693		-1.03296625		1.12530861		0.28259950866824807		0.4433102688222325		-0.04451340551109573
H		0.40837748		1.55215887		-0.55662508		-0.06382629803581165		0.2070549967763598		0.043996253829089775
H		1.21306429		-0.02579373		-1.02455827		-0.6906435500467458		0.383521785395763		0.21419746982786075
H		-1.7632221		0.63413871		-0.99766349		-0.23403224486432755		-0.7038948098504851		-0.014206990256335775
9
Lattice="50.0 0.0 0.0 0.0 50.0 0.0 0.0 0.0 50.0" Properties=species:S:1:pos:R:3:forces:R:3 Energy=-7254.785383251882
C		0.01601178		-0.79708406		0.63546731		-2.151057994232957		-2.456141439750696		-0.3611932974410423
C		0.76816841		0.36485722		0.23181069		3.5725017141748574		2.226727924535148		-1.232548321673748
C		0.36878568		0.88822956		-1.1257042		-3.693683512174633		0.594238650082932		-2.8994995825130645
O		-0.81342409		0.67006059		-1.52525214		2.565716146971337		0.1703524482844207		1.0941302082969604
O		-0.2420808		-1.12076679		1.79273973		0.3799859015379431		0.12119948718925548		-1.630136972205685
H		-0.40199888		-1.2897639		-0.40827864		0.3456181203692415		-0.08198198846727292		2.20180426793297
H		0.55694182		1.17892936		0.92398592		0.02375385610362416		0.6503776583156414		0.6361958648699035
H		1.93218288		0.26382723		0.2534288		-1.3932653038972884		-0.18671011488044198		0.25224784199853684
H		0.92686946		1.56822171		-1.93565638		0.3504311225699368		-1.0380626253089866		1.9390000421572315
9
Lattice="50.0 0.0 0.0 0.0 50.0 0.0 0.0 0.0 50.0" Properties=species:S:1:pos:R:3:forces:R:3 Energy=-7255.237581912528
C		0.9822496		0.97998123		0.19841854		0.3311868784985845		-2.1000828409330032		1.0870378203342808
C		0.46989479		0.05554146		-0.9734905		-0.3169431728896632		1.5280079225167191		1.1749701641794001
C		-0.53779331		-1.02596135		-0.69063239		0.7215375137869984		-0.3213408905140555		-0.1527326785877577
O		-1.51697129		-0.97151715		0.01075703		-0.1789801447655108		0.18103594739998594		0.18682735718281582
O		0.64398421		0.96655306		1.37468486		-0.20172628271140697		0.36105996003312324		-1.4929462006153267
H		1.9655755		1.4177048		-0.10677522		0.08134147525746223		0.7937415456583566		-0.14425184351700956
H		-0.13287575		0.75013953		-1.59204452		0.20625924036002868		0.24205213256732175		-0.5193476097605904
H		1.37496004		-0.2783393		-1.53221651		-0.34357311636787974		0.002178547097530499		-0.06388759313424569
H		-0.24748205		-1.92388406		-1.29515083		-0.29910244259067553		-0.686652375248041		-0.07566936465950393
9
Lattice="50.0 0.0 0.0 0.0 50.0 0.0 0.0 0.0 50.0" Properties=species:S:1:pos:R:3:forces:R:3 Energy=-7255.076710508493
C		0.03475038		0.03119375		1.29427697		-0.4745854757334499		1.6338575641118065		-0.0456799664197153
C		0.19237844		-0.91818		0.15958136		0.4758550350331461		-2.498109658859031		-1.2466697970402385
C		-0.68266848		-0.47127171		-1.03473406		-1.3609030860080533		-0.6863309359356994		1.2580037338236663
O		-0.35828122		0.33124361		-1.86136804		0.43739097237010266		0.3471114684846968		-0.6185772778806767
O		0.80737306		0.93985162		1.47601124		0.6981495770797304		0.46070342148970195		0.632255597913019
H		-0.99120804		0.0808782		1.8587031		0.8145331310107312		-0.7827614955086731		-0.47765074487577613
H		1.19385438		-1.26357436		-0.29725423		-0.4577587370838083		1.48436653234056		0.9327569777125014
H		-0.14774012		-1.90092512		0.53784886		-0.7245514637110049		-0.18173297345642328		-0.13277053110261552
H		-1.75683424		-0.90706088		-0.97673041		0.5918699956205434		0.22289602591099955		-0.3016679921301645
9
Lattice="50.0 0.0 0.0 0.0 50.0 0.0 0.0 0.0 50.0" Properties=species:S:1:pos:R:3:forces:R:3 Energy=-7255.099013551524
C		0.91482205		0.21181539		0.77228152		1.5207337061412347		1.646201430201647		-0.4694753054338869
C		-0.46190962		0.53788361		0.32149097		-1.4466446957268428		-1.496149332307067		2.323828924958275
C		-1.38449541		-0.35557956		-0.47265631		-0.5359358014625509		0.2756381441206773		-0.43863322655464076
O		-1.02660249		-1.26133538		-1.18376925		-0.19581598512020498		-0.3465530248865478		-0.05052263915044123
O		1.93036975		0.87446109		0.55614242		-1.1069868551934996		-0.9233771307240334		-0.046773405155538565
H		0.86160595		-0.5367219		1.5703888		0.5043930969824966		-1.1849407478212324		0.49170655426852455
H		-0.97692531		0.47506033		1.3576225		0.16744185670592807		0.43557978448667684		-0.8761486403158596
H		-0.61440116		1.53018155		-0.00031032		-0.013584063391881155		2.020881757602737		-0.7903199216232889
H		-2.51686329		-0.02312617		-0.36644606		1.1063986896432576		-0.42728082925079547		-0.14366234099314398
9
Lattice="50.0 0.0 0.0 0.0 50.0 0.0 0.0 0.0 50.0" Properties=species:S:1:pos:R:3:forces:R:3 Energy=-7255.206865190565
C		-0.24425194		-0.22446327		1.28043664		0.40243564271590826		-0.7916191514530158		2.4868062667806954
C		0.56189949		0.19573851		0.00726684		-2.439009665426633		0.8486817513492938		1.0032826448877286
C		-0.38724845		0.28947053		-1.19279035		0.6938594858320348		0.5897499154080126		0.06033160325001006
O		-0.08478145		0.70990731		-2.28685687		0.14908556880887017		-0.228361728350305		-0.15124673524929433
O		0.1640756		-0.98669795		2.17519053		-0.49375608341138144		1.2717411378057573		-2.110857922741782
H		-1.29557874		0.30896154		1.54506742		1.4317737438002214		-0.4912272492244778		-1.1895269787265468
H		0.82643591		1.26348497		0.2112379		0.13348462928378452		-0.07825126641485033		-0.03267239576990124
H		1.47383366		-0.33714853		-0.18147155		0.9254912973993832		-0.8136101564119123		-0.04512455672325052
H		-1.43556457		0.05198986		-0.9333274		-0.8033645675801255		-0.30710325270850275		-0.02099192570765899
9
Lattice="50.0 0.0 0.0 0.0 50.0 0.0 0.0 0.0 50.0" Properties=species:S:1:pos:R:3:forces:R:3 Energy=-7255.142651353889
C		1.06773704		-0.00360958		0.3821829		-1.5535978547819922		0.09011418195464627		1.580703915136384
C		-0.4411616		-0.51563672		0.39773928		0.09955630106073488		2.092528322895133		2.180426573912851
C		-1.4058447		0.42750601		-0.2846841		0.2896568782064031		0.26884410696430133		-1.0778240666075087
O		-1.15400898		0.7774994		-1.4292391		-0.17213401705987846		0.07664247576920669		0.13300270171455314
O		1.87565976		-0.69972878		0.93056323		1.2034494507113762		-0.8249076863751289		-0.20303564268743537
H		1.31046301		1.09372735		0.26818225		-0.3980455355567578		-0.018882746972366336		-0.8663615820148921
H		-0.4922346		-1.50399573		-0.00674972		-0.009100625189393622		-1.259008675190022		-0.6640524816477373
H		-0.66328866		-0.61060792		1.54037298		0.23478593803357892		0.03756114266857759		-1.4242068330453024
H		-2.32570538		0.88033803		0.21253812		0.3054295159979915		-0.46289101887022266		0.3413474666611499
9
Lattice="50.0 0.0 0.0 0.0 50.0 0.0 0.0 0.0 50.0" Properties=species:S:1:pos:R:3:forces:R:3 Energy=-7254.932310137038
C		0.88036555		-0.22604538		1.17167173		0.6713079289704293		-1.591610380314709		-4.777157423627061
C		0.03954913		0.79455297		0.22717038		1.4577302639486627		-0.7487122740168161		1.6806334375263423
C		-0.66512879		0.26757399		-1.03769632		-1.1263862910493097		-0.5751681611605802		-0.07685022090148311
O		-1.89706196		0.30969769		-1.1020212		1.4561248157370779		0.05906703189037095		0.016484010603447796
O		1.6611249		-1.07401226		0.74448913		-0.7946635432379893		1.2057381438666632		0.7933455443554703
H		0.6065995		-0.15084925		2.18668339		-0.3977380830454012		0.33789432090180366		2.550134799252043
H		-0.72174834		1.05488178		1.02981662		0.2692341433079441		0.8304518074596625		-1.2545452401698256
H		0.92025052		1.53495472		0.06943804		-1.494568155308956		-0.3248243238681817		-0.07288856236662156
H		-0.09761595		-0.26880501		-1.91416636		-0.04104113074452		0.8071638866638493		1.140843603905626
9
Lattice="50.0 0.0 0.0 0.0 50.0 0.0 0.0 0.0 50.0" Properties=species:S:1:pos:R:3:forces:R:3 Energy=-7255.3198127351525
C		0.79578389		-0.0445115		1.11244967		0.5064332673099885		-1.0149036196237222		0.8579430704838269
C		0.41995156		0.79367696		-0.0549511		1.5702425593305795		0.4385532138254769		-2.4520363650836767
C		-0.60974711		0.0516379		-0.88449902		-1.371891929330415		-1.0367004548748275		0.960009899477235
O		-1.72718625		0.48830529		-1.1364559		1.3920164676887574		-0.4262534164431511		-0.31046430155401067
O		1.15148787		-1.2210483		0.97312583		-0.4674915451088967		1.591215664563384		0.5497287926941449
H		0.71437652		0.51137611		2.12024677		0.1298658016392415		-0.6836548803840169		-0.3431726413455607
H		0.10068228		1.83853262		0.04509215		-0.06655444413675068		0.23826613179777112		0.6647941934764392
H		1.39996415		0.81275464		-0.6990532		-1.2250909913338985		0.0049152292608353465		0.6961338322318997
H		-0.29934031		-1.07324962		-0.93518647		-0.46752923748066855		0.8885621833003128		-0.6229365318023605
9
Lattice="50.0 0.0 0.0 0.0 50.0 0.0 0.0 0.0 50.0" Properties=species:S:1:pos:R:3:forces:R:3 Energy=-7254.910284527424
C		1.16917354		-0.02900174		0.54529072		1.2509915128563376		-0.7171658157262031		0.3344632866293086
C		-0.38389788		0.13005566		0.53706439		2.915150555704909		0.053296242354581344		-2.3253156910497377
C		-0.8127787		0.17773322		-0.95731878		-0.7651595178456159		-0.7076108251930485		1.7280699815991671
O		-1.91164286		0.3708906		-1.38957645		-1.4974646058202767		0.3789610598334211		-0.007497542392681323
O		1.90922554		-0.67429477		1.28636422		-1.5217577250927579		0.845397269954766		-0.8284611565783048
H		1.67283747		0.63577994		-0.29677328		-0.6888524167676733		-0.6277388382140674		0.718075112056412
H		-0.94220436		-0.27192347		1.33909927		-1.1419710840467878		-1.3756810668457746		0.9380910910940112
H		-0.33138042		1.16128215		0.76748036		-0.3585727262947376		2.3538293789414895		0.49930164431366336
H		-0.03473205		-0.03038679		-1.66144558		1.8076360073066025		-0.20328740510516444		-1.0567266742497756
9
Lattice="50.0 0.0 0.0 0.0 50.0 0.0 0.0 0.0 50.0" Properties=species:S:1:pos:R:3:forces:R:3 Energy=-7255.121161695115
C		1.05507643		-0.45545262		0.49130565		-0.985823209181768		-0.7756011275794413		-4.229035724650498
C		-0.26492727		-0.90037731		-0.27180783		0.2460099344474999		-0.5164402063499692		-0.7390452348095946
C		-0.87857936		0.21030451		-1.13845172		0.2682540902198113		2.208300057127167		1.2359425891715954
O		-0.91110848		1.41374857		-0.79451646		0.3362477350402631		-2.6857089126212035		-0.7838624418656133
O		1.01817838		-0.33836561		1.65133316		0.787383516169449		0.6329704160030623		3.745129948676893
H		2.01628385		-0.28712034		-0.20497569		-1.165963744208405		-0.1695240902804997		0.8516844912636874
H		-0.09665344		-1.91761665		-0.81429292		-0.1788294267004855		1.4470476904302219		0.3361491589465568
H		-1.15522199		-1.07631673		0.41287765		0.9556479716083042		-0.035204263858489		0.17251495169846848
H		-1.41180508		-0.13795516		-2.04386074		-0.26292681597260686		-0.10583966571497284		-0.5894777384314931
9
Lattice="50.0 0.0 0.0 0.0 50.0 0.0 0.0 0.0 50.0" Properties=species:S:1:pos:R:3:forces:R:3 Energy=-7255.296743309844