9
Lattice="50.0 0.0 0.0 0.0 50.0 0.0 0.0 0.0 50.0" Properties=species:S:1:pos:R:3:forces:R:3 Energy=-7254.965356259179
C		-0.29440718		-0.8895427		0.75715145		0.01404243965651286		-1.489709798849185		-5.48002708324065
C		-0.64229962		0.39985496		0.09462187		1.3969846616739108		-0.257243649631223		-1.5770686324318584
C		0.62588183		0.95037284		-0.74779685		-4.095067368025298		-0.8810517853920204		-1.9790774720294761
O		0.61019857		0.74816782		-1.95911586		0.8182511003916675		-0.10091271222390014		1.3027702901481768
O		-0.29585638		-1.16956145		1.8865424		0.02574137023917274		-0.40985831458567024		4.717291549996612
H		-0.06890134		-1.71328219		-0.0349971		0.11411033881650966		0.3602802473002749		0.31156987589657087
H		-1.45496734		0.26076665		-0.66970089		0.4888544809970939		-0.134713976530649		0.3282295956873921
H		-0.99811841		0.95251214		0.91972685		-0.3894476638718856		1.9335806709961891		1.2325263130310218
H		1.23455688		1.70013324		-0.30205747		1.626530640122316		0.979629370338246		1.1437855115201476
9
Lattice="50.0 0.0 0.0 0.0 50.0 0.0 0.0 0.0 50.0" Properties=species:S:1:pos:R:3:forces:R:3 Energy=-7255.009401672478
C		0.96143134		-0.24490392		0.52989169		0.5885240134393319		-1.2318925361113913		2.1654297921994283
C		-0.36873504		0.40211821		0.55653426		-0.4608417982597404		-0.4182411392053988		3.10164757755858
C		-1.05649026		0.21474155		-0.67944746		0.7856027701469903		2.465040541877369		-4.6097059509954565
O		-0.73302591		0.8157388		-1.74816506		-1.0655337823067352		-1.5733114794393395		2.513443512191779
O		1.15322215		-1.15070208		1.34536399		0.890142691811612		0.7746394835896637		-1.543844683620176
H		1.69469389		0.26527298		-0.12589349		0.6908947982438504		-0.35799232547592463		-0.41484250083224383
H		-0.83117383		-0.24332037		1.37105497		-0.18160184719718936		0.9758637841274859		-0.4574563239345713
H		-0.20629393		1.43439977		0.92325147		-0.16909199068977718		0.2563317307758294		-0.28827455032376575
H		-1.8021248		-0.57085778		-0.62421614		-1.0780948551883425		-0.8904380601382942		-0.4663968208215123
9
Lattice="50.0 0.0 0.0 0.0 50.0 0.0 0.0 0.0 50.0" Properties=species:S:1:pos:R:3:forces:R:3 Energy=-7255.263534779935
C		1.32088664		0.03049223		0.6778798		1.926482060963953		1.121596480198777		0.13378051183109108
C		0.245904		-0.78264981		0.10776367		-0.2529955702085447		0.21779973956829657		-4.3590432454938375
C		-0.9211282		-0.00280179		-0.61430854		1.8218308619562014		0.6850895045041604		2.1425771077401468
O		-1.85116183		-0.49964043		-1.15759801		-1.3138863002309642		-1.1136485833832053		-1.048467108313727
O		1.23919091		1.20722737		0.99636173		-0.2229449797144469		-0.4429281514762062		-0.0630697766531258
H		2.32822805		-0.52395568		0.80513232		-0.5188535465846221		0.19451037895473502		0.03874482712399123
H		0.61027858		-1.50552717		-0.73973423		-0.23410593267981075		0.5698593988558558		1.5952992962303643
H		-0.10982971		-1.30319856		0.93915076		-1.2534883625204005		-1.8081081132619066		1.7412570666689755
H		-0.80998717		1.09781422		-0.48684922		0.04796171759657223		0.5758293460394935		-0.181078627711815
9
Lattice="50.0 0.0 0.0 0.0 50.0 0.0 0.0 0.0 50.0" Properties=species:S:1:pos:R:3:forces:R:3 Energy=-7255.1305161983555
C		0.84275987		-0.12801806		0.72304862		0.7673135880414228		-0.771234263192516		-0.5114590025830175
C		0.02786039		0.72151798		-0.22498684		2.6823498178140683		2.424810645589976		0.2327319351712894
C		-1.17115484		0.03523571		-0.66377271		-2.2566636381417444		0.7290390671005504		-0.47024668779261913
O		-1.30615403		-0.87578664		-1.45376634		0.3177266394330701		-0.08698921179782178		0.24467141816206545
O		1.57069872		0.26729906		1.60837982		-0.5188349832200796		-0.3013352399640851		-0.19663488146463623
H		0.76272766		-1.20582289		0.31821366		0.38255489635561596		0.16775758816933825		0.8405820051833229
H		-0.17522712		1.7069278		0.2425551		-0.4727441545214314		-0.13913082316227068		0.3808496893428886
H		0.84604593		1.12202915		-0.94173617		-0.9482798585467962		-1.1989606646143944		-0.031885072571811036
H		-2.05314402		0.54430168		-0.09866408		0.04657764136381174		-0.8239571495508393		-0.48860940344748266
9
Lattice="50.0 0.0 0.0 0.0 50.0 0.0 0.0 0.0 50.0" Properties=species:S:1:pos:R:3:forces:R:3 Energy=-7255.250052631035
C		-0.27829838		0.10141216		1.13152203		-1.1863959921884164		-1.4315261465695504		0.3214664631905454
C		0.54588488		-0.74057801		0.17909259		0.5704730183270079		-0.8435516292895022		1.6400644127371269
C		0.68906578		-0.13521337		-1.16452429		-0.09250757042907055		-2.3335915063575188		-2.048333579905007
O		0.55171942		0.99681813		-1.53195405		0.05296837528443419		1.13060937934964		0.22669246535922644
O		-1.42291598		-0.23741297		1.39956078		0.2584463602497411		0.0896109656515628		-0.19244748007564258
H		0.10470848		0.97556536		1.62946514		1.005052643699136		1.3859923730733654		0.34849071104358753
H		1.58863629		-1.10693208		0.56751553		-1.2795779629664485		0.7627440178843405		-0.3909164322414925
H		-0.07576198		-1.67929453		0.11077059		0.4088052935909284		0.31880341742066126		-0.34730563819248794
H		0.81010872		-1.01532683		-1.94707051		0.26273583443268744		0.9209091288370019		0.44228902666208153
9
Lattice="50.0 0.0 0.0 0.0 50.0 0.0 0.0 0.0 50.0" Properties=species:S:1:pos:R:3:forces:R:3 Energy=-7254.8737299778695
C		0.21464864		0.22499234		0.91682081		-0.678078003445706		1.5062252797548485		-0.16362022044710328
C		0.83947577		0.09629313		-0.44258402		-0.8799541300470766		-0.2943849311599399		-0.735286539155202
C		-0.38462204		-0.56813631		-1.00498438		-0.950780410599355		2.9445926175120367		-2.3164934649064195
O		-1.24591156		0.16004592		-1.50126545		0.1419884500164454		-0.9606482529604231		0.12602915013818292
O		0.66950944		0.05560785		1.99168493		2.190822520855226		-1.062845488304191		2.7508045642684613
H		-0.83648947		0.56091207		0.92630998		-0.8348278249737032		0.4332627063529204		-0.767989891006695
H		0.87050133		1.10642696		-0.94232296		0.2225079436057297		-0.5624663975161245		0.34839953972687315
H		1.71801181		-0.5375699		-0.55807487		0.7407695708295513		0.0032098679819206164		0.4379619629514882
H		-0.58200909		-1.61066637		-0.88610687		0.04755198660301318		-2.006945401661048		0.3201948470083514
9
Lattice="50.0 0.0 0.0 0.0 50.0 0.0 0.0 0.0 50.0" Properties=species:S:1:pos:R:3:forces:R:3 Energy=-7255.12387517883
C		0.14386474		0.56242005		1.15497619		3.576815202460966		0.7164870959239961		0.4582981030967905
C		0.21121235		0.45011706		-0.35648476		-0.09863090962498075		1.2585568295273208		0.2738774012805096
C		-0.87766376		-0.37175495		-0.87971317		1.3837112389612576		-2.0614009029913816		-2.2962087982456243
O		-0.68035048		-1.20654659		-1.75810813		-0.6885774115777193		0.27048117974428953		0.5974871360337485
O		1.18651362		0.59086514		1.85677194		-3.0768262508606674		-0.23146088463178224		-1.270162583332831
H		-0.90997411		0.70175982		1.48949756		-0.18387315969537008		-0.05410598557189742		0.8362705737797128
H		-0.23860713		1.43643753		-0.7997016		1.2656911778929556		-0.6060701467425742		0.6129896023092526
H		1.19274155		0.10376967		-0.76751978		-0.3074998710761384		0.5630682413349768		0.1679660532104889
H		-1.85306406		-0.10388786		-0.52057871		-1.8708099650582413		0.14444457340705216		0.6194825118679526
9
Lattice="50.0 0.0 0.0 0.0 50.0 0.0 0.0 0.0 50.0" Properties=species:S:1:pos:R:3:forces:R:3 Energy=-7255.209670668648
C		0.03262843		0.63784951		0.92432981		-0.5977609585162663		-0.7368285325417301		1.2232599031123066
C		0.18108667		0.66303316		-0.55870939		2.6346816173499303		0.7029288464074621		-1.5673987135891403
C		-0.16329165		-0.63896831		-1.27932851		-3.2967746098861515		-1.623240193768545		1.1371066083615853
O		-1.03198542		-1.43341811		-0.81605453		2.422774743293667		1.9148864887268071		-1.2157180863238604
O		0.97743382		0.81112082		1.6689652		-0.48309037632942203		0.08476577323977706		0.07577822516569928
H		-1.05882009		0.39745551		1.31062908		1.1947125337696536		0.3325434953499995		-0.3464154708695083
H		-0.34893656		1.6201681		-0.86643165		0.015818917647788557		-0.8562461424231532		-0.40833843268599335
H		1.33430831		0.86378295		-0.82305545		-1.9671674024584187		-0.14266413591696822		0.6285467302371354
H		0.33693664		-0.89012473		-2.27190123		0.0768055351292187		0.32385434950428815		0.4731792365917757
9
Lattice="50.0 0.0 0.0 0.0 50.0 0.0 0.0 0.0 50.0" Properties=species:S:1:pos:R:3:forces:R:3 Energy=-7255.145207256373
C		0.72829898		-0.14831089		1.03621891		-0.19670887781249405		-0.9078806294077728		0.2824208170012529
C		0.91675145		-0.01809961		-0.47449291		0.6248197105732087		-0.31870525270345446		-0.7250743232419421
C		-0.35972685		-0.14361365		-1.41798336		6.483499526960862		0.9340865979811331		-1.1117430874372558
O		-1.40390264		-0.32696132		-0.98624998		-5.995888482855741		-0.9246977007096748		1.7949737872281666
O		0.17756426		0.62126472		1.78760228		-0.37183900134071063		1.0288840442729268		-0.39735709698474875
H		1.10832403		-1.0752862		1.53893983		0.4433975320622011		-0.5542169103043149		-0.45477882856514035
H		1.44252661		0.94043954		-0.62763488		-0.2579138333710642		0.5493803053769575		-0.2646183961387864
H		1.69604204		-0.73755249		-0.88696357		-0.6256367043013296		0.12164860748264714		0.467682732337066
H		-0.09838093		-0.10415372		-2.54128398		-0.10372986991493088		0.07150088658948994		0.4084943958013881
9
Lattice="50.0 0.0 0.0 0.0 50.0 0.0 0.0 0.0 50.0" Properties=species:S:1:pos:R:3:forces:R:3 Energy=-7255.069110708411
C		-0.10782365		-0.28830506		1.00564736		1.1471396698092882		-0.287011058827438		1.3895046027824607
C		0.39654147		-0.61659049		-0.31822829		0.04886540892197471		0.2644451037883479		-2.3221456751662117
C		0.20410719		0.52276501		-1.29387786		0.9649236889203218		-1.570567649609355		-1.190524669582098
O		-0.50655712		1.48307854		-1.28793722		-0.9858525711794237		1.2820392799853622		1.010035801504461
O		0.02886636		-1.11575927		1.89080768		-0.8697059186901055		0.6445527213480976		0.7489693329069769
H		-0.32505969		0.83993029		1.10418783		-0.5137361257742543		-0.74511715194306		0.5369346750255386
H		1.48803571		-0.95546644		-0.30875968		-0.94405075386516		0.19382821387434418		0.061168960114858915
H		-0.17758066		-1.40388689		-0.91509371		0.38396386086659967		0.11371968540811757		0.8488169913735232
H		0.72304049		0.24308861		-2.22332348		0.7684527924128217		0.10411085597558335		-1.0827599675374469
9
Lattice="50.0 0.0 0.0 0.0 50.0 0.0 0.0 0.0 50.0" Properties=species:S:1:pos:R:3:forces:R:3 Energy=-7255.220336941152
C		-0.57110411		-0.72453033		1.0736117		0.06418337283742738		-0.6255743807616467		-1.4328530414688723
C		-0.56988959		-0.74744297		-0.43820653		-1.9450342669189256		-0.9625061320765487		-0.5565141395219676
C		0.63637967		0.02874809		-0.88653693		-1.6260286579487315		0.6611308857478817		-0.28143469610975164
O		0.57335912		1.12497029		-1.39447319		0.36514338601185387		0.012215105245479392		-0.24369815278617532
O		-0.10350777		0.22936543		1.61562194		0.42293371093584875		1.213035088793748		2.0296059732950362
H		-0.88084743		-1.69720479		1.54753412		-0.2863958966944125		0.10726523955212619		0.5547206408280227
H		-0.55493989		-1.86406773		-0.6470819		0.034624274416175674		0.7731386278530915		-0.5969264812869144
H		-1.54852672		-0.25661656		-0.83432611		1.1996951773543538		-0.7313438039393201		0.39645726231402956
H		1.53763735		-0.48162276		-0.58401432		1.7708789000064096		-0.44736057899274856		0.130642634736593
9
Lattice="50.0 0.0 0.0 0.0 50.0 0.0 0.0 0.0 50.0" Properties=species:S:1:pos:R:3:forces:R:3 Energy=-7255.053645122226
C		0.84275808		-0.35231956		0.76890329		-0.2355815401837227		-0.1749714864655748		0.053672189053114265
C		0.11051158		0.58224165		-0.19973762		1.4380255867301808		2.3130196474779705		1.4702840348974027
C		-1.24301316		0.2873551		-0.60980101		0.09276524638398075		-1.2270525373279126		-1.768036339816531
O		-1.38313546		-0.49142295		-1.53552642		-1.2019286432145753		-0.5397836629732227		-0.19568871551565445
O		1.63721387		0.00547242		1.58967428		0.8994336814761759		1.1407412740013612		0.9491029200782855
H		0.71955757		-1.44764846		0.72409357		-0.7992381013351288		-0.7311023259340799		-0.8494311250652997
H		0.06778667		1.68151013		0.25636693		0.8711265045872018		-1.784678216151684		-0.8679468213559361
H		0.68069327		0.43024417		-1.16139248		0.08615756278190428		0.6000459492830573		0.5255906080958093
H		-2.05008733		0.88640283		-0.19438357		-1.1507602458039543		0.40378130666802264		0.6824533010508724
9
Lattice="50.0 0.0 0.0 0.0 50.0 0.0 0.0 0.0 50.0" Properties=species:S:1:pos:R:3:forces:R:3 Energy=-7255.064862731293
C		0.84780145		-0.1343663		0.54927001		-0.7012649827329402		-1.4361001904460655		0.09409635789242322
C		-0.16316507		-0.85914839		-0.40140686		2.151885992282441		0.04994527223331258		1.551507547943617
C		-1.12004731		0.14191989		-0.77441311		-2.518145185627282		-0.16180738705767925		-2.5788259961033537
O		-0.80924497		1.27176447		-1.02961737		0.6026801986979724		2.253695042476814		-0.004999304332932367
O		1.19775311		-0.48358396		1.63989651		0.1435413448802117		-0.4188045707436049		0.7891237930287637
H		1.23305556		0.74344991		0.0580538		0.5296034315828033		1.423929359596351		-0.6032664102098415
H		0.56006649		-1.1896128		-1.14455109		0.18050270061243473		0.16756470401310833		-1.2598155387718413
H		-0.56813974		-1.77677103		-0.07165279		-0.8519689066910685		-1.47142951276042		1.1797434171258254
H		-2.20509867		-0.13970833		-1.06303149		0.4631654069954273		-0.4069927173118166		0.832436082005277
9
Lattice="50.0 0.0 0.0 0.0 50.0 0.0 0.0 0.0 50.0" Properties=species:S:1:pos:R:3:forces:R:3 Energy=-7255.266488678481
C		0.89633852		0.81000749		0.57513029		1.7930755417930222		-2.1263187371467063		0.5447319566202099
C		-0.24927096		-0.11938066		0.51138864		-0.7298309154401358		-2.682860901692706		0.49253177552663646
C		-1.02178169		-0.06512496		-0.79211061		-1.1477905188536501		-1.679148316940878		-0.08363957865017657
O		-1.59935083		-1.01039667		-1.33445938		0.9255213793059133		1.047323275956708		0.7822741172008226
O		1.96396013		0.43058169		1.04509517		-0.420698239615192		1.2143222858608627		-0.3308608626226853
H		0.67414095		1.78512378		0.12217872		0.26336842864488164		1.1550492571883384		-0.16036890628285227
H		-0.03230464		-1.24742971		0.85369255		-0.07044837981537262		2.1472527616120525		-0.8107823543539553
H		-0.87813478		0.26825957		1.3379019		-0.6533614749110553		0.1254238610411468		0.004807602884138671
H		-1.08773124		0.94488522		-1.22880535		0.040164230313651204		0.798956514121182		-0.43869375032213814
9
Lattice="50.0 0.0 0.0 0.0 50.0 0.0 0.0 0.0 50.0" Properties=species:S:1:pos:R:3:forces:R:3 Energy=-7254.934357884811
C		0.18618117		-0.17522691		1.44168195		-0.8614310804015107		1.0376573166127978		-1.4481035396383979
C		0.14383381		-0.58103571		0.01422886		0.09177388044211013		-1.0774871492543714		-1.6248155086515368
C		0.04613826		0.38043716		-1.20645435		-0.13791880515045005		1.5760111377176842		1.916778512092396
O		0.48854633		0.30235075		-2.30613015		1.172683322218361		-1.3379266286444675		-1.5843670685987543
O		-0.81651985		0.04481502		2.09351274		0.6699595396490053		-0.03169779342038758		0.6115643884265364
H		1.24974862		-0.03511947		1.62573804		1.122044829161232		0.3257086290760426		1.8797983358853179
H		0.90562583		-1.41137411		-0.13453351		-0.6797001638275852		0.5357162806779747		-0.2966199911040971
H		-0.89375108		-0.90097066		-0.06860802		-0.8002337353081824		-1.0757772628339615		-0.24112776957281648
H		-0.53943331		1.31590166		-1.02020859		-0.5771777867829799		0.047795470068688645		0.7868926925834148
9
Lattice="50.0 0.0 0.0 0.0 50.0 0.0 0.0 0.0 50.0" Properties=species:S:1:pos:R:3:forces:R:3 Energy=-7254.841149805228
C		0.96460714		-0.38234996		0.30910377		-2.752675298900198		1.1002461941379411		-3.2558937102882095
C		-0.08650134		0.79508414		0.52546928		-0.3309070396347607		-2.3114727689955106		-1.9146057756879218
C		-1.30368801		0.34908276		-0.3770589		1.5593281751546377		-0.32731623701425006		-1.068590669652883
O		-1.18860909		0.18599496		-1.61068215		-0.311146980855026		0.6732103910146944		2.7353742945686297
O		1.57964062		-0.86665337		1.17801996		2.054839036446943		-1.1183512852599569		2.4595152412676904
H		0.86034735		-0.87829933		-0.75814921		0.42824653558350617		0.7372033993769516		0.8495278499647582
H		-0.13694943		0.92494616		1.57595592		-1.1996674608626963		-0.6999706379991457		2.055081337205183
H		0.28067568		1.77476694		0.37851273		1.0340113381192837		1.7367799019581063		-1.6951881437689287
H		-2.14136453		-0.09419237		0.21968641		-0.48202830505169003		0.209671094203232		-0.16522047503038112
9
Lattice="50.0 0.0 0.0 0.0 50.0 0.0 0.0 0.0 50.0" Properties=species:S:1:pos:R:3:forces:R:3 Energy=-7254.910103264043
C		0.1517651		-0.16367971		1.3226159		0.6457280754293953		2.070416990310116		-0.17881739393787344
C		0.32662511		-0.80723698		-0.01071417		-2.789000666564106		-0.4184152543088364		-1.3951651948384314
C		-0.18489107		0.18432495		-1.13901115		1.3538056072611913		-0.4287689323158816		1.865441347472831
O		-1.20125816		-0.05614382		-1.71395621		-0.7440424308379666		0.5807815477632265		-1.077363736304504
O		0.94607625		0.76627337		1.58113117		-1.6596664000969064		-1.6594774240174222		0.7005975243624085
H		-0.87108103		-0.42364879		1.89104773		1.6227375431081486		0.44616177645097627		-0.3987562398818055
H		1.36852903		-0.9445488		-0.31836733		0.36851214816672845		-0.6974770279250166		0.23354949454209706
H		-0.51395596		-1.54287178		-0.28157353		1.6320545009142466		-0.4336407613560135		0.849346947149078
H		0.56816374		1.01277649		-1.24292673		-0.430128377380731		0.5404190339767888		-0.5988327485638003
9
Lattice="50.0 0.0 0.0 0.0 50.0 0.0 0.0 0.0 50.0" Properties=species:S:1:pos:R:3:forces:R:3 Energy=-7254.839918043718
C		-0.4400119		-1.02153614		0.43046194		1.5684152763416086		0.4359765571204998		4.758270614311762
C		0.80880539		-0.46427214		-0.11250658		0.35792892207293037		0.8434156693563984		0.5591895780089009
C		0.53748117		0.99544831		-0.68798167		-0.18113190096850765		-1.7505425027507953		0.7728209423513085
O		-0.33693017		1.45599638		-1.36642666		-0.7081297766472401		-0.5085339099829154		-0.42495022711461616
O		-0.5310169		-1.00861842		1.69141044		-0.6487674278522494		-0.481192079472215		-2.7834550542397616
H		-1.21489623		-1.33359843		-0.2228673		-1.7289543382290904		-0.6235235660672287		-1.1812457126801466
H		1.596578		-0.54996097		0.74686531		-1.0890662664315351		0.8509717300561418		-1.2404280842565807
H		1.26097073		-0.9272801		-0.97078769		0.21910519146757915		-0.9965072225179574		-1.1549546920155027
H		1.33376267		1.55337536		-0.30255214		2.2106003202465048		2.2299353242580717		0.6947526356346363
9
Lattice="50.0 0.0 0.0 0.0 50.0 0.0 0.0 0.0 50.0" Properties=species:S:1:pos:R:3:forces:R:3 Energy=-7254.889257326848
C		-0.98395186		-0.14868858		1.22837707		-1.0862728143112914		-1.578116511220356		-3.005984440845531
C		-0.69079236		0.07467141		-0.38394776		-2.175578758975881		0.6770638061081099		2.379234551736399
C		0.71174499		0.39580739		-0.79706276		0.44958293768748203		-1.1066367223703137		0.744535928371248
O		1.01041945		0.23551485		-1.96070828		0.8123957215631564		0.428903709541549		-0.056795410859815626
O		-0.09190431		-0.53070842		1.91153296		1.2094824927656336		0.03444861665086471		1.8346069819029518
H		-2.11963559		-0.22904082		1.58045567		1.1912562512644982		0.6573474560814533		-0.5293899271795331
H		-1.26147867		-0.7072677		-1.02236379		0.7798852024458309		1.152026668357841		0.675690322820213
H		-1.18292039		1.08236833		-0.42232508		-0.35228293388269394		-0.1670776342376325		-0.8020642578870874
H		1.45771109		0.70593354		0.08036601		-0.8284681499787971		-0.0979593374894535		-1.2398337994809077
9
Lattice="50.0 0.0 0.0 0.0 50.0 0.0 0.0 0.0 50.0" Properties=species:S:1:pos:R:3:forces:R:3 Energy=-7254.965169229164
C		1.03412325		-0.0472551		0.97881232		-0.7724467440028986		-0.8616904532844816		-1.12413266774061
C		0.41837349		0.0749738		-0.35982466		1.5489765540300908		0.9201929223512726		-1.869515003259697
C		-1.03179284		0.38030668		-0.48934229		-3.3228630276247637		0.666892522156556		-0.6553448752816083
O		-1.55069095		0.78073858		-1.5453708		1.0151698830630607		-0.6876574708805844		2.238399807112962
O		1.15749251		-1.1438512		1.4411187		0.623005745898411		-1.3692183934597923		1.7961979408467244
H		1.39841545		0.88351619		1.41586755		0.4028730387790626		0.9780376003952717		0.8467610344728607
H		1.12648856		0.85465239		-0.87319105		-1.4239293081742885		-0.9294873058719578		-0.022365666105868102
H		0.47409297		-0.92175862		-0.92112726		0.3122579030920804		0.7234420841358238		0.585137870627351
H		-1.77233718		0.08610164		0.48839603		1.616955903517183		0.5594884430358292		-1.795138389250052
9
Lattice="50.0 0.0 0.0 0.0 50.0 0.0 0.0 0.0 50.0" Properties=species:S:1:pos:R:3:forces:R:3 Energy=-7255.312627786056
C		-0.22808552		-0.76630013		1.16989088		1.0614457797644472		2.3875894027541578		0.5495435704252192
C		0.41130094		-0.62341808		-0.19707851		0.6253794911449814		0.16228329824560453		-1.190275221157179
C		-0.44984259		0.21581961		-1.28828652		0.7186329900118741		-1.3533307759365776		2.1074511082606984
O		0.02533299		1.18301989		-1.80978523		-0.31283377876939816		0.38702614752930403		-0.6506589369972137
O		0.21836303		-0.09280346		2.10740237		-0.7481584584042871		-1.305262408982495		-0.6918038374637471
H		-1.19559072		-1.31645551		1.24111724		-0.16865644582087091		-0.4596913324566661		0.107034971556499
H		1.46384236		-0.15620574		-0.11413864		-1.3803043730581117		-0.3346427496272404		0.00932554529052657
H		0.54519806		-1.62862591		-0.67591498		-0.17907342438678542		0.07787753086500254		0.09298255601987188
H		-1.50615209		-0.21508173		-1.41605324		0.3835681166740256		0.43815083618684747		-0.33359970451261295
9
Lattice="50.0 0.0 0.0 0.0 50.0 0.0 0.0 0.0 50.0" Properties=species:S:1:pos:R:3:forces:R:3 Energy=-7255.126966727004
C		0.41774783		-0.11617177		1.43855347		1.1898306260052824		2.861855033259202		-1.0485312316255957
C		0.45370132		-0.72082828		0.07965223		-1.8791461498673325		-2.13600876201584		-2.0135665578434847
C		-0.3181528		0.06112112		-1.04463758		-0.8059020406735198		-2.4543098887305423		-1.125024634835775
O		-0.94967432		-0.38936191		-2.01231358		1.2480819497190938		0.5887038363917009		2.1263382775304347
O		0.3941098		1.11292855		1.59919824		-0.42506037317237266		-1.368805525720424		-0.03748699205453239
H		0.63777283		-0.76705939		2.26756485		-0.17578009839751713		-1.1272983641708907		1.3137406729501209
H		1.41484529		-0.71260984		-0.43944908		1.1730108293340709		0.4278415868417546		0.3009318338842068
H		0.25704255		-1.85453533		-0.00501886		-0.2564068069869986		1.129563248911266		0.4894658378974984
H		-0.08568807		1.09496509		-0.90866571		-0.06862793596070674		2.078458835233774		-0.005867257324935797
9
Lattice="50.0 0.0 0.0 0.0 50.0 0.0 0.0 0.0 50.0" Properties=species:S:1:pos:R:3:forces:R:3 Energy=-7254.791714725648
C		0.32520278		0.76727816		1.16027381		0.13946542652259813		-4.027979574256872		2.001206031005412
C		0.42746818		0.00225816		-0.09469842		-0.35912386796001944		-0.2711758918079169		-1.202187861831359
C		-0.68074878		-0.52759199		-1.03269987		-0.6074766429945605		0.14829860556521704		-0.6755354395681297
O		-0.73329039		-0.3505031		-2.24367305		0.3623480826973621		0.049066674874383105		1.210512116721963
O		0.6468888		0.16493469		2.19217068		0.051710643059100225		1.143795178867887		-0.20002210413992846
H		-0.14219402		1.67717208		1.24036965		-1.3380327637813532		3.6256100088912047		-0.04581469222332031
H		1.24913137		0.41731788		-0.64294744		0.6999943435699326		0.8318434941576648		-1.335230209956057
H		0.89113022		-0.82944071		0.38320883		0.4553534701129594		-1.963183889547018		0.12898339904769113
H		-1.48519351		-1.2017255		-0.55488374		0.5957613601960433		0.4637254446775122		0.11808876094372818
9
Lattice="50.0 0.0 0.0 0.0 50.0 0.0 0.0 0.0 50.0" Properties=species:S:1:pos:R:3:forces:R:3 Energy=-7255.0157555490205
C		-0.67565232		-0.6633713		0.99991486		3.1481141472675116		3.6497325097604936		3.7382420662565545
C		0.53263533		-0.33041722		0.12065216		0.03959977033419616		0.065785684303203		-0.22054038123040962
C		0.14582139		0.52525584		-1.07050311		-2.0188427185606193		-0.5008494998153102		1.0342454627695945
O		0.62611592		0.42855684		-2.14995622		1.480294162105255		0.013988703601258186		-2.1939789098922042
O		-0.62682747		-0.01535861		2.09273571		-1.4049670626933826		-2.0353320256364986		-2.2415417979724555
H		-1.48391322		-1.32641243		0.77161761		-1.1659434324937392		-1.0962106420993467		-0.6137870556536443
H		1.10893756		0.38107399		0.79106925		-0.0318797246773168		-0.8007472360237549		-0.3634555596562327
H		1.14639395		-1.17497767		-0.29737857		-0.22922171092262952		0.28190345963099717		0.4108126566425807
H		-0.79511981		1.1453034		-0.95361312		0.1828466210627873		0.4217289948568953		0.4500034673141544
9
Lattice="50.0 0.0 0.0 0.0 50.0 0.0 0.0 0.0 50.0" Properties=species:S:1:pos:R:3:forces:R:3 Energy=-7254.688143534226
C		0.28394408		-0.68865483		1.04521326		-2.1093388635951045		-4.7960957578489305		3.3368151701396234
C		-0.15615277		-0.30739386		-0.27677219		1.1600760723246786		0.6578315947993697		-0.6414138158123506
C		0.15744366		1.04904645		-0.67488776		1.0788706598444449		4.0696077906883215		-1.394969019670205
O		0.09355224		1.49166295		-1.83662765		0.19552293078633287		-0.8801750392273391		2.3348635339162125
O		-0.34804301		-1.53219238		1.75487047		0.8856913923981524		2.212754287598186		-1.6766695164207328
H		1.27525963		-0.52277799		1.45212675		1.2575362044319194		1.2417279825731193		-0.17542960561989432
H		0.13166016		-0.98152956		-1.0686242		0.8010339140218837		-0.9380765386503392		-0.6496692165613414
H		-1.18289538		-0.28373826		-0.46750999		-2.903992276686792		-0.4704701680760036		0.42477611201117843
H		0.41513722		1.80061638		0.26695864		-0.36540003352551514		-1.097104151856385		-1.5583036419824907
9
Lattice="50.0 0.0 0.0 0.0 50.0 0.0 0.0 0.0 50.0" Properties=species:S:1:pos:R:3:forces:R:3 Energy=-7255.193174024444
C		0.37752445		0.00936448		0.95569308		0.09959275930300812		0.5772430413802222		1.9107910814075266
C		0.45028195		0.72605067		-0.39205127		0.35133512242771403		-0.6135269114397368		0.09747000514323008
C		-0.54957196		0.01630164		-1.30818608		-0.14842875480526446		-1.0373878135835253		1.5390869601366084
O		-1.64001865		-0.37836442		-0.89086423		1.0185719667143995		0.8078565932670414		-0.8977334624035055
O		1.38113587		-0.32701273		1.55768731		-0.22382285716450215		-0.12203884951453967		-0.4157100938698101
H		-0.65593932		-0.10261302		1.52170162		0.9027782752617014		0.06528041111762177		-1.313569180371868
H		-0.01568577		1.69056132		-0.30684043		-0.5003288514330579		1.3641082745822912		0.5817059107577319
H		1.54830524		0.93843599		-0.68065324		-1.3474324596859248		-0.7716964446897685		-0.07024495413634153
H		-0.08438365		-0.28643894		-2.24690183		-0.15226514919601083		-0.26983830111960644		-1.4317962666635722
9
Lattice="50.0 0.0 0.0 0.0 50.0 0.0 0.0 0.0 50.0" Properties=species:S:1:pos:R:3:forces:R:3 Energy=-7255.285895649359
C		1.17163738		-0.5472282		0.598714		0.9289978706816095		-0.0032312081378351497		1.2005716664087231
C		0.2918581		-0.54708515		-0.63365577		2.1767613121459215		0.06188393247108947		-0.8417036232093659
C		-0.9403534		0.28324048		-0.45912784		0.06681186298134865		-1.0647782379432358		-0.009576484955256514
O		-1.24618548		1.11016564		-1.25792799		-0.6821943395444011		1.8543852440927922		-1.261516940551948
O		0.74636846		-0.35594952		1.73267346		0.4460929223093628		-0.2815901964265843		-0.878246454775352
H		2.36045925		-0.60575879		0.3978595		-1.6559157262842552		-0.09180097986901847		0.193099408983316
H		1.0369015		-0.12906736		-1.43545852		-1.572195569262228		-0.5226876784046208		0.5920350090189285
H		-0.06919181		-1.5602058		-0.96683599		0.43217461551159136		0.17878535799297043		0.24965550156451416
H		-1.62977576		-0.01134365		0.35598166		-0.14053294853894926		-0.13096623377555724		0.7556819689385028
9
Lattice="50.0 0.0 0.0 0.0 50.0 0.0 0.0 0.0 50.0" Properties=species:S:1:pos:R:3:forces:R:3 Energy=-7255.227233460957
C		-0.35150842		-0.11897847		1.28005673		-2.3724560954649436		-0.5554704773425908		-2.5982472349136403
C		-0.47814363		-0.62949842		-0.21118706		0.9181989290358561		-1.3087853859026413		1.2524916486840356
C		0.33981479		0.23920834		-1.08920983		1.128834598286425		-1.845472360853384		1.1180993685760403
O		-0.08505663		0.90953027		-1.95649751		-1.2275713345159167		2.411881133630953		-2.5332181234151854
O		0.54132366		-0.42283012		1.99721178		1.181779576532447		0.07470391543710542		1.4869104331917598
H		-1.3056261		0.52835183		1.48398873		1.077249579325877		-0.19838564842468953		0.49975420988523883
H		-0.01772255		-1.68694431		-0.40798136		-0.7392106081624167		1.2786187872356682		0.7449911164680081
H		-1.50698598		-0.56250967		-0.533651		-0.912858747850978		-0.09559577381124708		-0.23995215838120665
H		1.42320538		0.06477874		-0.94627472		0.9460341028136504		0.23850570718670078		0.26917073990494983
9
Lattice="50.0 0.0 0.0 0.0 50.0 0.0 0.0 0.0 50.0" Properties=species:S:1:pos:R:3:forces:R:3 Energy=-7255.00568032268
C		0.76369713		0.3974984		0.9976612		0.29723402195174875		0.9498263770748194		-0.5830096143068912
C		0.34218361		1.01694474		-0.41367617		0.8050827843746515		0.3115034385918924		1.2082538654276431
C		-0.85844344		0.32453508		-0.84781569		-1.7971005008867529		-0.6594337519989579		0.5769763151423217
O		-0.77746346		-0.85732507		-1.08421003		-0.4867964157918712		-1.0123464518804117		-0.8360634971342482
O		0.53754308		-0.72779909		1.30544028		-0.5455493103027677		-1.4526789204885362		0.43921691838545013
H		1.44002757		0.98997272		1.66577692		0.007508906668481593		0.7367549989924341		-0.14739841094006084
H		0.13244545		2.11383223		-0.35013925		1.083988594875437		-0.15842726062700432		-0.24963107608485294
H		1.20040856		0.51574114		-0.97201435		-0.386448369235676		1.3232535488141333		-0.09994052671132138
H		-1.9146007		0.8206525		-0.71148398		1.0220803397688114		-0.03845197847836889		-0.30840397377804046
9
Lattice="50.0 0.0 0.0 0.0 50.0 0.0 0.0 0.0 50.0" Properties=species:S:1:pos:R:3:forces:R:3 Energy=-7254.924434013003