9
Lattice="50.0 0.0 0.0 0.0 50.0 0.0 0.0 0.0 50.0" Properties=species:S:1:pos:R:3:forces:R:3 Energy=-7255.035527150344
C		0.18979422		-0.44620785		1.25189059		-1.8270170340640575		-0.3562988941154971		-0.8862038646724759
C		-0.17704319		-0.52602879		-0.29572018		1.584218715948601		-0.24875792946454262		0.8242504095729613
C		0.01212967		0.38067048		-1.51341542		-1.0012290019798762		-0.7936510428284539		0.5857689735997343
O		0.59741434		1.41281268		-1.59281261		1.0422558373910364		1.401600820219568		-0.11505542490218007
O		-0.58421629		-0.82858274		2.12504217		0.633819445676086		0.3059296983993907		-1.218585997590524
H		1.14431505		-0.04076131		1.5130136		1.7572346213794057		0.6737879636200729		0.39344223252671173
H		0.16080087		-1.49734263		-0.70243095		0.21893914962794536		-0.4688200855142169		0.22255494337080417
H		-1.20971698		-0.6558576		-0.22034308		-2.7390261351772622		-0.5016383656752735		-0.09226871494901509
H		-0.60295583		-0.02982244		-2.39835535		0.3308043497760587		-0.012152164641047127		0.28609749446604615
9
Lattice="50.0 0.0 0.0 0.0 50.0 0.0 0.0 0.0 50.0" Properties=species:S:1:pos:R:3:forces:R:3 Energy=-7255.049173199421
C		0.74545583		-0.25660484		1.2466336		0.8989985994058314		0.3288487173192258		-0.9907793189822468
C		0.57035159		0.28780684		-0.31650077		-1.9530839794181372		-1.1606836754145247		3.511008949332785
C		-0.57260614		-0.39413989		-1.06517479		1.0410157943551837		0.36169507392637734		1.6581341254801802
O		-0.96271989		0.03504316		-2.10481642		-0.8150331077238807		0.14586618774539725		-1.7273693559983587
O		0.2688676		0.29258866		2.22040234		0.08902449702938146		-0.4083745309738294		-0.9238116471516907
H		1.47435609		-1.19425529		1.38866214		-1.0214964422497521		1.0047969732046613		-0.4181457512795639
H		0.25968203		1.32862222		-0.29553669		0.02630691008193913		0.8381568892963704		0.24079100648586643
H		1.46309474		0.19659104		-0.84437841		2.3265442669656657		-0.30343619116938664		-1.2567627651906892
H		-1.04099139		-1.20602047		-0.47433408		-0.5922765898682935		-0.8068694439342912		-0.09306519127422044
9
Lattice="50.0 0.0 0.0 0.0 50.0 0.0 0.0 0.0 50.0" Properties=species:S:1:pos:R:3:forces:R:3 Energy=-7255.137968639163
C		0.32178212		-0.93673576		0.8355781		0.5902036636870243		0.45492543286517007		-3.5762288881049717
C		-0.75510165		-0.27861936		-0.11294707		1.1884277807197297		0.596556499547625		-0.03317124119767689
C		-0.34732715		1.04680689		-0.86359807		0.15356900701135767		-1.4974121553165831		-1.5566961368884078
O		0.37846583		1.13073596		-1.83761053		0.43833009349652957		-0.3740290669802288		0.647457039434972
O		0.35433533		-0.97355898		2.01082385		-0.4335524182527336		0.022670238981727823		2.772451658473728
H		1.20511868		-1.38574116		0.21063078		-0.7641575075368192		0.33009112576995125		0.2792458131776698
H		-0.80988091		-1.03615386		-0.93113744		-0.5220828006840844		0.22350959396008926		0.13683359394461792
H		-1.7081856		0.04998177		0.34801479		-0.022657486310241552		-0.8081954132364891		0.30345609150755276
H		-1.01839856		1.88617893		-0.6972321		-0.6280803321307623		1.0518837444087377		1.0266521210745787
9
Lattice="50.0 0.0 0.0 0.0 50.0 0.0 0.0 0.0 50.0" Properties=species:S:1:pos:R:3:forces:R:3 Energy=-7255.339080281622
C		-0.39606531		-0.51839008		0.94060111		-0.5564812294020032		-0.7866932264031918		0.8028444848405604
C		0.57454695		-0.40600753		-0.23645658		-1.8821462672565412		-0.4969537643645026		-0.6231824321049708
C		0.68978597		1.00258764		-0.63751226		-1.2065864536308126		1.3245099440658439		-2.03391833029577
O		-0.06992874		1.5345674		-1.45872221		0.7393076415942496		-0.732285701857119		0.8627766415095003
O		-0.70767626		-1.60310985		1.40101415		0.1700584683534246		0.6361812610041694		-0.05537472211859454
H		-0.88007739		0.44402329		1.33835182		0.295912012148359		-0.3416944627385265		-0.26422275479033724
H		1.46536791		-0.97583655		-0.04206687		1.0963580177303127		-0.3538135629934217		0.3627440840002484
H		-0.00293451		-0.96267904		-1.03855228		0.43730036669607525		0.38251087907016335		0.2686783736570422
H		1.41292173		1.65153072		-0.1357285		0.9062774437669358		0.36823873706071014		0.6796546553023217
9
Lattice="50.0 0.0 0.0 0.0 50.0 0.0 0.0 0.0 50.0" Properties=species:S:1:pos:R:3:forces:R:3 Energy=-7255.150011043226
C		0.35042468		-1.03981896		0.81919133		0.13953572048195997		0.45554995381356034		0.5658770686518915
C		-0.31692272		-0.52179188		-0.49799556		-0.607655128973306		0.8979728321041854		2.2404882113350273
C		-0.15274588		1.02664401		-0.62975574		2.687947829220044		-2.4963399171579357		-5.208400837009842
O		0.38225197		1.57798519		-1.6051637		-1.0331727985469987		-0.9191628355963812		1.6898619493850355
O		-0.26991864		-1.0852703		1.87287522		0.22882169869887253		-0.029082621590639474		-0.7526879193526627
H		1.47608878		-1.27744567		0.85589985		-0.5894645229614447		0.05869154799040004		-0.5556900495492295
H		0.03876193		-0.98513105		-1.3943595		0.3023025403807317		-0.685346306284009		-1.0388808017445437
H		-1.39960009		-0.70868034		-0.21572223		0.528378969431871		0.07052371313685406		-0.7207389805792952
H		-0.47901675		1.52568241		0.18150536		-1.6566943591537924		2.6471936850060276		3.780171358863619
9
Lattice="50.0 0.0 0.0 0.0 50.0 0.0 0.0 0.0 50.0" Properties=species:S:1:pos:R:3:forces:R:3 Energy=-7254.970004989664
C		0.9435543		-0.02490274		0.73458058		-1.928375267036978		-0.5573305676074015		0.20203928880550756
C		-0.44910046		-0.59373292		0.20496175		-0.6856287676730175		3.068704290363721		2.596410541687242
C		-0.85639974		0.12784716		-1.01004391		0.23158697152889657		2.0468001225808448		0.08267664910883783
O		-1.48589491		1.19409463		-1.038305		0.3566696986077855		-1.53367273118181		0.04060208917536749
O		1.81284181		-0.7761043		1.06162255		1.1721213819199658		-0.11921068750214578		0.09446813940389813
H		0.86598978		1.07550782		1.02227821		0.3814209884566488		-0.14888574267421018		-0.4498396366232057
H		-0.4664881		-1.67212919		0.25919433		0.004968913894027573		-0.810629682250557		-0.12208759762973721
H		-1.08414721		-0.00681447		1.0017679		0.39437189199364875		-1.5215734284209563		-0.5971351005942523
H		-0.19370251		-0.18244126		-1.8132865		0.07286418830902278		-0.4242015733074843		-1.8471343733336576
9
Lattice="50.0 0.0 0.0 0.0 50.0 0.0 0.0 0.0 50.0" Properties=species:S:1:pos:R:3:forces:R:3 Energy=-7255.057472781891
C		-0.60925916		-0.77195105		0.69071888		-2.3507771710030245		-0.2935026828345768		-1.7398546841819844
C		-0.32941449		0.66234415		0.35991926		0.029256171051390202		0.4882717147634085		0.2503764388799883
C		0.21792492		1.07010152		-1.01398972		-4.363918262701842		3.8212548099655317		3.2387548397195287
O		0.91494874		0.45774124		-1.67705335		4.620251330451295		-4.028187679343585		-3.9918581979146817
O		-0.19933811		-1.36557325		1.634174		1.4112699677313496		-0.8667266272361869		1.7886803952717516
H		-1.47885154		-1.28867771		0.10283685		0.7777390512476406		0.5929048132051798		-0.1991833588793936
H		-1.30548409		1.17126964		0.32975278		-0.4205629995909625		0.15691416643957018		0.5033278889589555
H		0.25749477		1.02900366		1.23636491		0.0697388581977612		0.3394410451180766		-0.4007755328519449
H		-0.24538308		2.05417501		-1.42504188		0.22700300319432976		-0.21036950865535534		0.5505322109977804
9
Lattice="50.0 0.0 0.0 0.0 50.0 0.0 0.0 0.0 50.0" Properties=species:S:1:pos:R:3:forces:R:3 Energy=-7255.118765541222
C		0.77672385		-0.53112402		0.47052419		1.2776792547327418		3.0717683253765484		0.9175917373225096
C		-0.34793124		0.50329145		0.67719454		-0.8916082720133474		-1.1799709083300807		-0.7691483272294483
C		-1.07977863		0.73465482		-0.64148151		-0.04424575367607127		-2.700094954498972		-0.20851713169991126
O		-1.27756294		-0.22576595		-1.39716863		-0.17001907905359198		1.3565835813406393		0.3455679838583579
O		1.89219475		-0.42071612		0.92747058		-0.131155055588854		-0.5957951444910693		-0.044796843919290695
H		0.38802478		-1.28005531		-0.1782187		-0.33657513931184835		-1.918037684135478		-1.1566227208770825
H		-0.8369016		-0.1436167		1.4544585		-0.8803939429471658		0.47357894028315806		-0.3224229649740786
H		-0.21811046		1.47519873		1.07505833		1.1870738378155616		1.346404841190031		1.2179325774430398
H		-1.33366139		1.78852254		-0.92799679		-0.010755901379487252		0.14556295184316112		0.02041574149796656
9
Lattice="50.0 0.0 0.0 0.0 50.0 0.0 0.0 0.0 50.0" Properties=species:S:1:pos:R:3:forces:R:3 Energy=-7255.1786386120575
C		0.25298023		-0.75730965		0.98957236		0.4519490724688105		-0.1708673373956791		-0.05862269384878664
C		-0.39746389		0.53801682		0.51285116		1.2494601638367355		0.8062279022832318		-1.3080136435894716
C		-0.25777066		0.79177349		-1.08922639		1.004573184388902		-0.19307390364034344		0.32433200904233656
O		0.79587923		1.2084092		-1.58072471		-2.279611196306236		-0.7459289006208114		0.6614410122064854
O		-0.42759683		-1.74459908		1.18704597		0.8474631513134803		0.0164180360973313		0.13659514984106205
H		1.46110055		-0.68826879		1.16288663		-1.9413348609025314		-0.2827196306061188		-0.32822589329889607
H		-1.43158642		0.60356571		0.81614392		-0.9980208309260162		-0.3922923837883867		0.08965215472358097
H		0.13998714		1.32967749		1.07435789		0.15781888620622156		0.3303208795449539		-0.43672402822019546
H		-1.22366406		0.4451926		-1.7280957		1.5077024299206339		0.6319153381258227		0.9195659331438848
9
Lattice="50.0 0.0 0.0 0.0 50.0 0.0 0.0 0.0 50.0" Properties=species:S:1:pos:R:3:forces:R:3 Energy=-7254.624744837021
C		0.17425822		0.65888104		1.15846541		0.1707751890597783		-1.713795525596904		-1.9884082109483097
C		0.63741357		0.53895754		-0.36345259		-1.34931430148315		0.957999091147399		0.755456586038808
C		-0.63340511		0.16452158		-1.1759179		-0.14427868583360567		3.8095906406970843		3.8090637188232135
O		-0.61061189		-0.94248908		-1.51801326		-0.8063832997559394		-5.313113022583654		-3.1134774801342875
O		0.46741237		-0.28762435		1.84573813		-0.06534977947985961		0.21427383159059107		1.393917387071149
H		-0.58117305		1.46629169		1.46335979		0.6364400168223907		-0.042651978272661456		-0.15659067024473083
H		1.10564621		1.48692223		-0.55571751		0.5338268798375706		1.159364699512819		-0.7337240283657586
H		1.28808179		-0.33973317		-0.59363725		0.04883779527444192		0.5110762167501794		0.716217747160911
H		-1.66531665		0.67931619		-0.9772248		0.9754462369804353		0.4172560467551465		-0.6824550494009956
9
Lattice="50.0 0.0 0.0 0.0 50.0 0.0 0.0 0.0 50.0" Properties=species:S:1:pos:R:3:forces:R:3 Energy=-7255.17158395218
C		1.26696319		-0.58604838		0.47674881		-1.5389194784792262		-1.5920188771787696		1.1231892271609378
C		0.644187		0.31519713		-0.51552146		-0.1400451074325368		0.3711310223849726		-0.6085315666056128
C		-0.88772006		0.31437328		-0.39358762		2.567006326518073		-3.8353661037636573		2.960552740143298
O		-1.59620257		0.94900468		-1.05702601		-3.0175456631449635		2.809952174530684		-2.4981594354154772
O		0.64224927		-0.96647639		1.46898474		0.43482115479943084		0.6540570611497442		-0.2123604680690877
H		2.19848505		-1.11318152		0.29021963		1.456218403890727		-0.018134298853484297		-0.5689293794344816
H		1.11526327		1.29609761		-0.41621061		-0.08191889359665332		0.906454078551433		0.321083985890082
H		0.86635196		0.13843111		-1.59527686		0.21246356930428922		-0.49562491542680776		0.1480241660179499
H		-1.2345114		-0.56186666		0.3341177		0.10791979098498429		1.1995497557617605		-0.6648692182655459
9
Lattice="50.0 0.0 0.0 0.0 50.0 0.0 0.0 0.0 50.0" Properties=species:S:1:pos:R:3:forces:R:3 Energy=-7255.350645690186
C		1.12023693		-0.05252792		0.43012271		-0.30508149147936603		2.1418067024006007		0.08645221119971218
C		-0.38714201		0.2619009		0.61683598		0.7113011809264521		-1.810404468304498		1.9189518655616196
C		-1.23344727		-0.056164		-0.55256092		-0.34575073786828625		0.8861303311231801		-0.2955306661332694
O		-1.27346154		0.75536855		-1.46088119		-0.4689869501068498		-0.6811813763363038		-0.5336288534750963
O		1.73732903		-0.92428641		0.97854324		0.1330423995467604		-0.4755156494210113		-0.18380178587269685
H		1.58251449		0.85553151		-0.12454504		0.2293807079397084		-1.0138456106889233		-0.09803194544162533
H		-0.67112783		-0.32512457		1.53640095		-0.10473054325010396		0.2557848571417304		-0.4628949783690308
H		-0.46250839		1.32885744		0.81644089		0.034199785290695		0.6636535492872918		0.04690473710302223
H		-1.85135363		-1.0028629		-0.46327765		0.11662554615686534		0.03357166479793347		-0.478420584572635
9
Lattice="50.0 0.0 0.0 0.0 50.0 0.0 0.0 0.0 50.0" Properties=species:S:1:pos:R:3:forces:R:3 Energy=-7254.85184909208
C		0.21594947		0.58701912		1.00635632		2.276092898793773		-0.5614152277156308		1.4452521862758412
C		0.68478005		-0.1596101		-0.30538195		0.3040084673023333		-1.2791095079775774		0.9584281568364373
C		-0.38747935		-0.82604614		-1.23444814		0.7455975882724805		0.8214577802057167		1.8629078338782452
O		-1.34970538		-0.21472922		-1.60351722		-0.9819798213905292		0.5187598555868479		-0.7934384126002454
O		0.84963757		0.57713772		2.0660206		0.7526149514460535		-1.312463503185183		-1.0192402992599927
H		-0.54416371		1.29387168		1.21534262		-2.6393964034113564		1.1383896916637044		-1.717587491325698
H		1.24052299		0.62181053		-0.88431536		-0.05308140097768754		-0.2631695281073457		0.061622914082120374
H		1.41249973		-0.99218642		0.0724229		-0.7100372780536247		1.3703826917976643		-0.5427536470338388
H		-0.2886123		-1.92518618		-1.38803694		0.3061810494406202		-0.43283220084613366		-0.25519129227493165
9
Lattice="50.0 0.0 0.0 0.0 50.0 0.0 0.0 0.0 50.0" Properties=species:S:1:pos:R:3:forces:R:3 Energy=-7255.122510725633
C		0.16833942		-0.77394351		1.20959595		-0.8974582515253017		-0.04317936294509389		-1.996397451102087
C		0.28540727		0.6040575		0.59154292		-0.9538392519838758		0.8638977967369811		0.03646991508143944
C		-0.19257695		0.62416685		-0.88563325		0.5814334252488376		0.796341136603184		-1.1515892208726244
O		0.44272204		1.17144745		-1.76805372		0.20894331775345268		-0.06583798054070922		0.33508117413164357
O		-0.6786391		-1.61624825		0.92936762		0.6245237766038398		0.743429788386001		0.7236624790954617
H		1.09554332		-0.91205079		1.73614985		1.125507539424193		-1.196316439319365		1.5788010931376817
H		-0.55204518		1.21655123		1.03362869		0.3542933308360304		-0.027839544653102243		0.2002182278860924
H		1.29489981		1.13335705		0.86695495		-1.4907627684218638		-0.8088467250794132		-0.9269621226514878
H		-1.20730042		0.21013654		-1.23322767		0.44735888206468793		-0.26164872061054484		1.200715956715943
9
Lattice="50.0 0.0 0.0 0.0 50.0 0.0 0.0 0.0 50.0" Properties=species:S:1:pos:R:3:forces:R:3 Energy=-7255.067155092615
C		-0.14108356		-0.52836367		1.20401939		1.6473487078368496		0.7482600683996777		2.0556982476883316
C		-0.34156076		0.61733912		0.22936815		-1.5001031232663744		0.854005528896252		-1.5412685411358233
C		-0.37563242		0.01084468		-1.20029837		1.3606992489525227		0.529212521064099		-3.2327712142672813
O		0.08005192		0.56379704		-2.24871367		-1.4985923430717505		-1.3824199795512098		3.5372312701220032
O		0.74739424		-0.64978671		2.04169242		-0.38960964336858633		0.4060413063124655		-0.9671701645623418
H		-0.93816898		-1.28750983		1.24214316		-0.7918592410625699		-0.46444962158292025		-0.6585863164098701
H		-1.44489815		0.94580709		0.41615224		1.104718216642566		-0.4021982784756637		-0.2202237755919379
H		0.23949287		1.61490999		0.16474434		-0.12914075055877178		-1.560447222077559		0.6131969874870921
H		-0.76506032		-1.096969		-1.3144475		0.19653892789611446		1.2719956770148584		0.41389350666982766
9
Lattice="50.0 0.0 0.0 0.0 50.0 0.0 0.0 0.0 50.0" Properties=species:S:1:pos:R:3:forces:R:3 Energy=-7255.231893826649
C		1.17816342		-0.24646355		0.50465057		2.827158716533541		0.9865490830152367		-2.5076676318718074
C		0.0376471		0.68769218		0.31474564		0.03341030236598212		-0.7722244464269503		0.7287737292583361
C		-1.04671802		0.10117374		-0.52892323		-0.8187593560568706		-0.5415928968182756		0.6630799876027841
O		-1.460057		0.66496966		-1.51434189		-0.35363245448949165		-0.6610851201123059		-0.2072091601195689
O		1.2923813		-1.16676532		1.23872047		-0.5885539925017371		-1.960347140050196		2.0400009432182244
H		2.13448443		-0.07170524		-0.22872936		-1.550068964324665		0.28699290683939505		0.6597231553663965
H		-0.44554089		0.89032733		1.28017412		-0.04217550144204922		0.1289806222563191		0.4667607347574332
H		0.43378912		1.5569773		-0.14294193		0.2889188173441349		1.6198017032969951		-0.6828019426342473
H		-1.47765461		-0.87296879		0.00521464		0.20370243257115525		0.912925339421844		-1.1606598669996129
9
Lattice="50.0 0.0 0.0 0.0 50.0 0.0 0.0 0.0 50.0" Properties=species:S:1:pos:R:3:forces:R:3 Energy=-7255.373091130279
C		-0.26525823		0.25255672		1.05083353		0.3899463036114116		-1.0108854996642964		0.1775425381657454
C		-0.95088337		-0.08197339		-0.25514023		-0.35521630543484967		-0.884460091112915		-0.6269621593829031
C		0.02039088		0.08777843		-1.46046997		-1.147031066413405		-0.3725511969055692		0.30774201756819036
O		1.20087058		0.24207409		-1.35755526		1.3953726314383332		0.10734766911822498		0.11774814120209473
O		-0.08684453		-0.4992059		2.00162222		-0.5005953205606462		0.6417419914148724		-0.8488499014934878
H		0.2139078		1.24348181		0.97161885		0.30790692812245035		0.8307066552011381		0.44295602223405117
H		-1.47751299		-1.09509474		-0.18283271		0.5232099208708089		0.8031347623830605		-0.3486940853005562
H		-1.68579441		0.66851835		-0.62109845		-0.4615637640164635		0.11196192504757174		0.7143108628192757
H		-0.48685318		0.18673887		-2.46968282		-0.15202932761763963		-0.22699616406002462		0.06420661560965236
9
Lattice="50.0 0.0 0.0 0.0 50.0 0.0 0.0 0.0 50.0" Properties=species:S:1:pos:R:3:forces:R:3 Energy=-7255.025383447319
C		0.93960375		0.46897841		1.00583963		1.4312164829095086		1.210132210524622		-1.0833838714210877
C		0.41854366		0.78327025		-0.36125377		-1.6598737852747458		-3.217015597178362		0.8222122447059048
C		-0.84234826		-0.23199661		-0.56342369		1.4179067562207697		2.1886399628368247		-2.638074393607967
O		-1.03157619		-0.49976534		-1.7356157		-0.7196250758626189		-0.6995894462502433		0.255516639664019
O		0.54703839		-0.43613647		1.68220612		-0.5724956537312061		-1.3021702975235725		1.1089631593194351
H		1.77095521		1.13697705		1.34167433		0.32199009405241935		0.3171028383935539		0.4350525026583693
H		0.24880255		1.84079448		-0.4600585		-0.4828514694273042		1.0878809364701232		-0.3846004659996646
H		0.98613694		0.37185055		-1.22838001		0.5764658483284336		0.5573788529240371		0.41078396313173654
H		-1.46253529		-0.65036404		0.22739733		-0.312733145793194		-0.14235951161904603		1.0735302215492546
9
Lattice="50.0 0.0 0.0 0.0 50.0 0.0 0.0 0.0 50.0" Properties=species:S:1:pos:R:3:forces:R:3 Energy=-7254.845751168613
C		0.33589588		0.56518441		1.09610166		1.4065488567562427		-4.416575483086423		0.19107373967743346
C		-1.02705936		-0.09772091		0.49729376		3.3097939047662033		-1.3039631791527682		-0.16474173562902134
C		-0.65120191		-0.58081241		-0.89640162		-0.1922350555356837		-0.6352300556930679		1.1978790529529333
O		-0.1909725		0.1898187		-1.67445039		0.6859496413426722		1.2835152474437113		-2.152696558252756
O		1.42744617		-0.06335232		1.01054121		-3.061765808633938		2.5151462509455094		0.1027946568652498
H		0.16468018		1.42326957		1.78248917		0.2338668715115055		0.5797156712528737		-0.12649390273855776
H		-1.39391693		-0.99859027		0.99442428		0.21400252878913303		-0.27789444137662406		1.1005215078602697
H		-1.76626806		0.61980221		0.56156471		-2.232528230334781		2.1248820047220023		-0.30510422003096654
H		-0.63733083		-1.70049513		-1.10546444		-0.36363270866135455		0.13040403636684975		0.15676751071747802
9
Lattice="50.0 0.0 0.0 0.0 50.0 0.0 0.0 0.0 50.0" Properties=species:S:1:pos:R:3:forces:R:3 Energy=-7255.162334855065
C		0.63333353		-0.07668957		0.95278367		-4.3825893564651865		-2.5570480841712278		-2.430068088676381
C		0.62598532		-0.23331332		-0.56021724		-1.5740920149251867		-0.6880297151906213		-0.6221590816402596
C		-0.76786535		-0.43824407		-1.21013682		-1.7352194480511607		1.6564491787600562		2.2009769383702986
O		-1.81175159		0.02935291		-0.69185948		2.3110835039828044		-1.190593472301649		-1.333289284209083
O		1.37104503		0.6591213		1.46602683		2.9211971217615895		2.4461015905907506		2.817258941071695
H		-0.31435298		-0.59387176		1.4084903		1.0493952251187906		0.23539138139680235		0.369620653566848
H		1.05408605		0.7107234		-0.87913243		0.5098584908894273		0.5295964381823108		-0.7751629601853506
H		1.19597623		-1.08679306		-0.92053898		0.9331372438642798		-0.4018882548611849		-0.08846317379573551
H		-0.79799418		-1.04152791		-2.15524193		-0.032770766175357874		-0.02997906240523724		-0.13871384165790696
9
Lattice="50.0 0.0 0.0 0.0 50.0 0.0 0.0 0.0 50.0" Properties=species:S:1:pos:R:3:forces:R:3 Energy=-7254.943679812977
C		-0.08385091		-1.0706292		0.83746355		0.09935174409632999		1.7587786716484313		1.2392290760265585
C		0.78229268		-0.05806141		-0.09701934		-1.4969820611862958		-1.723070265889735		1.3997459235830638
C		-0.22939303		0.82198835		-0.81308147		0.3138753326442148		2.906761354749437		0.7696975662784198
O		-0.35176642		1.05867335		-1.99200005		0.08320557644314364		-1.0613446325676186		-0.6428733282107174
O		-0.07802352		-0.79235549		2.02924925		-0.3263389092954268		-0.9736125776557213		-0.6760194240198589
H		-0.80453616		-1.91186011		0.44012964		1.1257278829617683		0.8731363358978512		-0.12366280966860452
H		1.46486655		0.49217918		0.62634967		-0.8616425279222834		-0.2072117826447536		-0.5464544928679812
H		1.36727433		-0.75676017		-0.67593359		0.5846647362307976		-0.09255328464258386		-1.3277442889494881
H		-0.79619593		1.604529		-0.1162852		0.478138174605689		-1.4808838703173701		-0.0919182221713923
9
Lattice="50.0 0.0 0.0 0.0 50.0 0.0 0.0 0.0 50.0" Properties=species:S:1:pos:R:3:forces:R:3 Energy=-7254.803630296962
C		0.82433956		-0.08364917		0.79044968		-0.7126447879960686		0.6402254005271921		-1.0361865427827555
C		-0.02998441		-0.70316046		-0.33339545		1.3387431595740262		2.565578181577798		-0.16613172539896298
C		-1.14988816		0.18372089		-0.96551514		1.584275588749665		0.6230370619344398		-0.45942506901732766
O		-1.39584674		1.37091952		-0.74032762		0.18947862730040008		-1.8373570852245549		0.2123711638580762
O		1.69333693		-0.80966713		1.23064366		0.11742248528063269		1.1765823486811648		0.861517829420855
H		0.51769497		1.04623051		0.99648345		0.9490589542148952		-1.2614486006309586		0.48714428604430937
H		0.85713715		-0.87693312		-1.09319355		-1.9510072994263097		-0.4598324345960142		0.6765563217738437
H		-0.36022662		-1.53774956		0.26042941		-0.6622551777211717		-1.5938929542445652		-0.4880395955735334
H		-1.50179285		-0.35329652		-1.88784214		-0.8530714985540071		0.14710803055343583		-0.08780666832450454
9
Lattice="50.0 0.0 0.0 0.0 50.0 0.0 0.0 0.0 50.0" Properties=species:S:1:pos:R:3:forces:R:3 Energy=-7255.015289432415
C		1.0830455		0.04423886		0.48059355		-0.1849639244839462		1.8860922934844198		2.032980700409154
C		-0.37716992		0.3891883		0.86526786		-0.45896715555125794		1.8831028204621367		-3.845222119050363
C		-1.02737985		-0.10807306		-0.60320745		-0.3688422778076232		0.38072015716759045		1.0413723035141125
O		-1.29689866		0.67231528		-1.49132659		0.29264110617831657		-0.3255701494618792		0.5870880009235023
O		1.58997453		-0.98900138		0.81554081		0.5263232182194584		-1.4530439142877685		-0.20489429313449758
H		1.73411604		0.90441319		0.08134132		-0.6498707396240619		-0.36532871112490434		-0.42220408329182146
H		-0.79735787		-0.06807173		1.76805512		0.08006980765320577		-0.5069314442509524		0.07385303456983361
H		-0.59917884		1.54813046		0.78261659		0.5442493605641668		-1.880998732511026		0.40921831559648386
H		-1.16018605		-1.23378729		-0.7545682		0.21936055342967933		0.3819576805223837		0.32780814046359563
9
Lattice="50.0 0.0 0.0 0.0 50.0 0.0 0.0 0.0 50.0" Properties=species:S:1:pos:R:3:forces:R:3 Energy=-7255.076710508493
C		0.03475038		0.03119375		1.29427697		-0.4745854757334499		1.6338575641118065		-0.0456799664197153
C		0.19237844		-0.91818		0.15958136		0.4758550350331461		-2.498109658859031		-1.2466697970402385
C		-0.68266848		-0.47127171		-1.03473406		-1.3609030860080533		-0.6863309359356994		1.2580037338236663
O		-0.35828122		0.33124361		-1.86136804		0.43739097237010266		0.3471114684846968		-0.6185772778806767
O		0.80737306		0.93985162		1.47601124		0.6981495770797304		0.46070342148970195		0.632255597913019
H		-0.99120804		0.0808782		1.8587031		0.8145331310107312		-0.7827614955086731		-0.47765074487577613
H		1.19385438		-1.26357436		-0.29725423		-0.4577587370838083		1.48436653234056		0.9327569777125014
H		-0.14774012		-1.90092512		0.53784886		-0.7245514637110049		-0.18173297345642328		-0.13277053110261552
H		-1.75683424		-0.90706088		-0.97673041		0.5918699956205434		0.22289602591099955		-0.3016679921301645
9
Lattice="50.0 0.0 0.0 0.0 50.0 0.0 0.0 0.0 50.0" Properties=species:S:1:pos:R:3:forces:R:3 Energy=-7254.9286547832
C		1.08759649		-0.03045592		0.92789142		-1.1457969883367953		-3.85769736850975		0.677576689758933
C		0.54537641		0.09530853		-0.48082211		-1.396939821635459		-2.8400032278233436		1.127344078384404
C		-0.94416245		0.17902012		-0.67912966		-1.7334959862062649		-0.40331732539858445		1.7292743377236834
O		-1.64399004		0.89450239		-1.37055386		1.0313769344381816		-0.40613592290736356		0.17607855204794592
O		0.99020639		-1.09044994		1.57020325		0.1918490301129116		1.9750794066744035		-0.5548171600392315
H		1.67144409		0.82372996		1.27100509		0.45996757177611886		0.923479306362111		0.5847200663699881
H		1.13316377		0.85126319		-0.76942045		2.1602456769740694		3.6823834111082934		-2.7419850634944525
H		0.77968704		-0.87084984		-0.99690205		0.21774332956579479		0.2458210097900782		0.10682121004291655
H		-1.41605182		-0.59904677		0.09143994		0.215050253311443		0.6803907107041546		-1.105012762216249
9
Lattice="50.0 0.0 0.0 0.0 50.0 0.0 0.0 0.0 50.0" Properties=species:S:1:pos:R:3:forces:R:3 Energy=-7254.494907471846
C		1.10202032		-0.10486971		0.72570179		1.4331424962583734		2.5944755294774495		0.7669903489568957
C		-0.26464147		-0.11828833		0.22748391		0.37631693738251665		-2.314605760994076		1.3807581213371232
C		-0.73469825		0.40734835		-1.00725591		0.1515051825351412		1.2757691308011725		-0.8116092725401277
O		-1.81572333		0.88198521		-1.11664361		-2.7643353544036504		1.518328439170386		-0.875408111194594
O		1.7358614		-1.01751657		1.14453234		1.1817657439976492		-2.3566440169514604		0.3207817784290948
H		1.51070185		0.95593228		1.0137104		-0.5253919132465232		-0.36334464226753965		-0.7664572564355318
H		-0.60960703		-1.10838273		-0.13736066		0.6257614542248203		-1.2079875505662425		0.724969987877242
H		-0.73216158		-0.04916178		1.22578628		-1.2266125187395736		0.9188769803512514		-0.2521030374706927
H		-0.12638542		0.15888151		-1.90053978		0.7478480234133087		-0.06486810902094048		-0.4879225589594092
9
Lattice="50.0 0.0 0.0 0.0 50.0 0.0 0.0 0.0 50.0" Properties=species:S:1:pos:R:3:forces:R:3 Energy=-7255.236875233767
C		0.17145239		-1.26814659		0.82128966		1.0643167763548576		1.4455728028351837		-2.134905964464652
C		0.15360853		-0.51707305		-0.50019138		-0.1479208590944986		-2.297731148404299		-0.1523382199467447
C		-0.23233028		0.90156578		-0.57534861		-0.12016029872931132		1.9497528067909098		-1.8177775178840005
O		0.15063753		1.59547989		-1.5365606		-0.6602280171754782		-0.8553399828387533		1.6679574877572334
O		-0.26451495		-0.76278839		1.80202283		-1.1675366936765248		0.2948384223286393		2.552284961371104
H		0.82049809		-2.16310863		0.79407254		0.06593341988860651		-1.0439379558977262		0.17763489218989603
H		1.12035594		-0.65330314		-0.9676312		1.3175571155806385		0.26001154498643175		-0.2150926250908974
H		-0.33145303		-1.21446755		-1.23982362		-0.695841857761339		0.5440890265734643		0.10791238620799223
H		-0.90834848		1.34371644		0.22925102		0.343880414613049		-0.2972555163738506		-0.18567540013993053
9
Lattice="50.0 0.0 0.0 0.0 50.0 0.0 0.0 0.0 50.0" Properties=species:S:1:pos:R:3:forces:R:3 Energy=-7255.033788179392
C		0.23534342		0.63053947		1.10396698		0.13988287082552386		0.14731351311496468		2.3593902121963177
C		0.59095369		0.62656009		-0.30717271		-0.6320328375385087		-2.945824947238523		-0.9256147617713127
C		-0.67673257		0.16193666		-1.1188306		1.5667037444152005		-2.626895751453122		-1.2714991970019554
O		-0.60583731		-0.99538005		-1.5896218		-0.9657589374806106		2.6894271391124525		0.8602171083513172
O		0.4580784		-0.29443765		1.89109356		-0.42567029025502867		1.1736766421986045		-0.9698810842723619
H		-0.26105648		1.59540362		1.40275891		-0.3010737073544916		-0.019747717484747976		0.6058967001259483
H		1.17461113		1.42358697		-0.70874556		0.23156691692454318		1.6526933113190978		-0.39366417014822286
H		1.22335222		-0.28386071		-0.35391305		0.10830036566913721		0.01585481024737493		-0.48487276785787903
H		-1.57527875		0.83001791		-1.28808012		0.27808187479423485		-0.08649694839403904		0.2200280118002111
9
Lattice="50.0 0.0 0.0 0.0 50.0 0.0 0.0 0.0 50.0" Properties=species:S:1:pos:R:3:forces:R:3 Energy=-7255.140465418684
C		-0.58494113		-0.03103553		1.35916535		0.11813252111886859		-1.4481988761421705		2.548853155767672
C		-0.35734432		0.54406893		0.0388113		-0.26544572570145863		0.35895582065995024		-2.7617269188640825
C		0.3786289		-0.04728714		-1.20551339		-0.9475242113391718		-1.3267118367797244		0.8350948083219157
O		0.87080353		0.64854017		-2.06135056		0.17082110896154137		0.06609910177380321		0.1721101572229041
O		-0.31449418		-1.10154576		1.88370961		0.47978393771423034		-0.367568450476744		-1.2574816970457279
H		-1.10143353		0.63554658		2.07658272		-0.5016551806896931		1.1761385248602052		-0.1240304259930214
H		-1.43412461		0.67789578		-0.37457067		1.0885578050780824		0.3373658563660598		0.3998687562027957
H		0.14376188		1.51961943		0.12864372		-0.44749196236229477		0.6656927425955973		0.24755773852708424
H		0.27629587		-1.19145307		-1.30432595		0.3048217586419581		0.5382271171430227		-0.06024562556160258
9
Lattice="50.0 0.0 0.0 0.0 50.0 0.0 0.0 0.0 50.0" Properties=species:S:1:pos:R:3:forces:R:3 Energy=-7255.174845629163