9
Lattice="50.0 0.0 0.0 0.0 50.0 0.0 0.0 0.0 50.0" Properties=species:S:1:pos:R:3:forces:R:3 Energy=-7254.826188070573
C		1.0008111		-0.53683752		0.53792651		0.7390520739438995		-0.44592106977667284		-5.814611725937327
C		-0.23750863		-0.80961611		-0.29445443		-0.04918679681225384		1.3779490369098963		1.9684978969021116
C		-0.46619306		0.42647064		-1.16494978		1.975525081689612		-4.003008146558682		0.5436359467812644
O		-1.21513851		1.25435859		-0.83165364		-2.499724003087419		3.693286585274622		0.14447635224164296
O		0.91544266		-0.38899477		1.68483137		0.6727924324911443		0.6718048203598321		4.871023462101794
H		1.93598833		-0.43645679		-0.17149324		-0.1370500294054475		0.0013026751079105918		1.2164405148791455
H		-0.07672722		-1.62239906		-0.91299094		0.5517351787266106		-2.427256844522531		-1.76948916734678
H		-0.89307974		-1.0644332		0.55892939		-1.048127928389842		0.34463924998854495		-0.6386963140783376
H		0.2490402		0.35040761		-2.03686044		-0.20501595773424167		0.7872036932170802		-0.521276965543514
9
Lattice="50.0 0.0 0.0 0.0 50.0 0.0 0.0 0.0 50.0" Properties=species:S:1:pos:R:3:forces:R:3 Energy=-7254.763134135664
C		0.8067017		0.67161018		0.42194775		0.38050156198013824		1.3193849642122966		1.134170048641558
C		-0.58419301		0.11049545		0.81831737		1.6106406571842293		1.3380774495536178		-4.7307870645969645
C		-1.06138043		-0.00313618		-0.67167904		-0.9318819284758808		-2.4190726633300264		0.17976417695160452
O		-1.11428497		-1.02594563		-1.36350362		0.21514836660658743		1.7940037614422106		1.2250035224056801
O		1.86305247		0.2496901		0.8434059		-0.24650836849877605		-0.10475193482808093		-0.5036717482905229
H		0.71487567		1.67355257		-0.13544751		0.4108988400192378		-0.5176821520021327		-0.12212981514300428
H		-0.28188941		-0.63304033		1.45965045		-0.15034782617569922		-2.894465979664482		1.7078705212958427
H		-0.98743154		0.98355199		1.23432385		-1.3709487972831174		1.5881378998598834		1.1875366363775637
H		-1.33652586		1.01621437		-1.07816757		0.08249744322121821		-0.10363134524328688		-0.07775627764175803
9
Lattice="50.0 0.0 0.0 0.0 50.0 0.0 0.0 0.0 50.0" Properties=species:S:1:pos:R:3:forces:R:3 Energy=-7255.306300203844
C		-0.39480327		-0.66251122		0.87882562		-0.5183834975118154		0.9162370230874048		0.6676454954169332
C		0.31101443		-0.75210123		-0.47862975		-0.5656922577594654		-0.71772400221404		0.004923919589388493
C		0.137996		0.46746205		-1.38727328		0.22226615706811495		2.0094388060469273		1.883599403319165
O		-0.28008512		1.57469544		-1.02804734		0.18474594636124328		-1.7163911570429229		-0.3889197649788288
O		0.21824374		-0.69805914		1.95328115		-1.3751853067417457		-0.14367463086606827		-1.897455335155191
H		-1.55924157		-0.40454543		0.75667662		1.4460378639679332		-0.5239814574957286		0.6363622666639746
H		1.35016057		-0.9644789		-0.14850359		0.35285464437295366		0.2351498005474373		-0.6692748548875547
H		-0.02335464		-1.61669807		-1.1425389		0.11106275886366437		0.29345018090882086		0.7745415759827691
H		0.56655034		0.35763795		-2.39013002		0.14229363995705446		-0.3525045629718305		-1.0114227059506558
9
Lattice="50.0 0.0 0.0 0.0 50.0 0.0 0.0 0.0 50.0" Properties=species:S:1:pos:R:3:forces:R:3 Energy=-7255.33101895604
C		0.6890582		0.13432662		1.10228536		-0.19957457793047254		-0.44255169055704885		-0.7662678689795481
C		-0.32776959		-0.97949682		0.50345663		2.5643776821079647		0.1206256683944355		0.7184044189443078
C		-0.20176916		-0.79312535		-0.99447628		-0.28569300852285645		0.5413959503191125		-0.6846658895537412
O		-0.63491937		0.19692013		-1.56519629		0.09451087113778962		-0.5973374464099721		0.30597808656015113
O		0.466915		1.31737296		1.0039769		-0.040105557740401844		-0.3007547363011474		0.3244457546444641
H		1.71217494		-0.25043172		1.4628497		-0.6549514965039067		-0.02162081753135719		0.019612785992893185
H		-0.01976797		-1.98466086		0.90849244		-0.20744246201688035		0.4286891252749674		-0.47249702008932243
H		-1.30954486		-0.71462529		0.83301599		-1.2639984664414023		0.4134957570168182		0.35942031615001285
H		0.38150611		-1.56438073		-1.57983358		-0.007122932667771969		-0.1419418102058081		0.19556941633078284
9
Lattice="50.0 0.0 0.0 0.0 50.0 0.0 0.0 0.0 50.0" Properties=species:S:1:pos:R:3:forces:R:3 Energy=-7254.953125938089
C		1.14218825		-0.19367909		1.01321201		-3.4828370124680403		-1.7262512346725618		-3.2559720260893124
C		0.01411903		0.69944353		0.55445647		1.4563235620084265		-0.1429688630590153		-2.855023406575179
C		-0.80078041		0.11190455		-0.59749603		0.015333236267998734		-0.0894620987807855		-1.367943537687664
O		-1.5941232		0.68839595		-1.32984112		0.29311989700173885		0.29542951893644076		1.0187313236859152
O		1.2767507		-1.26568474		0.44587745		0.9661515963494379		-0.163318475784678		0.04808765022749921
H		1.62970554		-0.00500628		1.88738618		2.3119208094255908		1.2172196105472446		3.4273555895698733
H		-0.65759654		1.05783873		1.23966024		-2.158013496665409		0.7360599269743697		3.0336408201122054
H		0.35669983		1.68604645		0.20471945		0.5589363757734235		0.3387309578577783		-0.35075153344102955
H		-0.52910692		-0.93480177		-0.86096717		0.03906508372889658		-0.46543939344085516		0.30187512019769164
9
Lattice="50.0 0.0 0.0 0.0 50.0 0.0 0.0 0.0 50.0" Properties=species:S:1:pos:R:3:forces:R:3 Energy=-7254.965429776446
C		-0.46576465		-0.57939582		0.9674956		1.1749147311960846		-0.6495605617433957		-0.07185544171004588
C		0.76121024		0.26144116		0.4269751		-0.7289419308245926		1.8182864934580782		1.5265215678017559
C		0.57443882		0.69284499		-1.05089738		-3.5781466225017833		1.254644484750344		0.33590402997488306
O		-0.31621814		1.43123416		-1.54030752		2.1319197310323035		-0.9826045480271692		1.8007682823347433
O		-0.47660649		-1.76626002		1.19616709		0.788931063138721		-0.40781500751236915		-0.2831839718299941
H		-1.38109975		-0.07353075		1.23916899		-1.000753347902263		1.549492008784036		-0.1170336830664886
H		0.84869999		1.1378454		1.19810684		-0.6155887304555179		-0.6439988543135062		-1.3112673745906576
H		1.71156633		-0.23080361		0.65970089		0.22688714928764192		-0.8260474563892147		-0.593666785326485
H		1.03843183		0.01800942		-1.72838023		1.6007779570294058		-1.1123965590068026		-1.286186675009774
9
Lattice="50.0 0.0 0.0 0.0 50.0 0.0 0.0 0.0 50.0" Properties=species:S:1:pos:R:3:forces:R:3 Energy=-7255.156617432267
C		0.38171273		-0.27608897		0.99545575		-1.1022062488921445		-3.5862324332888313		1.6576229901794801
C		-0.84882674		0.37675786		0.25131805		3.1140801467061383		-0.976491493243748		0.36295609716370775
C		-0.4104049		0.39834931		-1.20638488		-0.5673939680719465		1.4256585292901776		0.5184042206029806
O		0.59801223		0.90760651		-1.66181893		-0.28093111985223107		-0.4654084373592634		0.2393041889723415
O		0.20912074		-1.36255849		1.61007212		0.7831815109147212		2.9377977576026617		-1.4437316358893526
H		1.43563923		0.18298032		0.93946482		-0.9314048860025815		0.05328667785096664		-0.21310490526709905
H		-1.73718252		-0.2321579		0.44835841		-0.25865492813501667		0.02321305027289366		0.08640094340345485
H		-0.80588405		1.34159781		0.73478845		-0.5680589581834808		1.2353154456980204		0.04376454601571413
H		-1.24947724		-0.01638704		-1.78251459		-0.18861159990552068		-0.6471390968228767		-1.2516164966032899
9
Lattice="50.0 0.0 0.0 0.0 50.0 0.0 0.0 0.0 50.0" Properties=species:S:1:pos:R:3:forces:R:3 Energy=-7255.400036115806
C		0.6619829		0.79773221		0.17458436		0.47068521514114725		0.28343162048272763		0.7983897401489168
C		0.55904819		-0.69821865		0.22047672		-0.8791234066282833		-0.9899938469784045		0.09441980266520016
C		-0.78397044		-1.10348176		-0.40634568		-0.8998481432994798		-0.19715049048476882		-0.6636660962705282
O		-1.48700799		-0.42842835		-1.15635678		1.055670053710663		-0.29172877594642344		0.6772497482859098
O		1.09559297		1.37183959		1.1518326		0.14352365569073072		0.7345071349547284		-0.010834217180590472
H		0.25709296		1.35128078		-0.72035098		0.11548171379984631		-0.19213848490241262		-0.07226614972279138
H		1.42507632		-1.22048556		-0.31800285		-0.7319604573121564		0.38029577088623473		0.499723819446334
H		0.50957755		-1.02804483		1.33495612		0.4561076775028352		0.3193085877621176		-1.422760690383171
H		-1.18830449		-2.11373227		-0.0903411		0.2694637428167595		-0.04653146435173644		0.09974404301072033
9
Lattice="50.0 0.0 0.0 0.0 50.0 0.0 0.0 0.0 50.0" Properties=species:S:1:pos:R:3:forces:R:3 Energy=-7255.344338632109
C		-0.24510436		-1.04868052		0.54318328		-1.2245634009732163		-2.624410985973734		-0.29612741916793967
C		-0.96958896		0.144047		-0.07015838		0.09872526910956671		1.2076271333305677		0.7975684783896132
C		0.23486448		1.00247631		-0.51221216		0.06255853850830098		0.2638863002357618		0.3766729837428834
O		0.66832579		1.08802549		-1.63522397		-0.1534502220471105		0.025572037387542473		-0.28175150743647315
O		0.24001515		-1.17032698		1.65363009		-0.06672645093562807		0.9789466910372309		-0.5448623115485071
H		-0.32203167		-1.99892972		-0.12651323		0.40321766944156673		0.7700376203773661		0.1827887198204746
H		-1.74979534		-0.00407376		-0.87629942		0.914470572398306		-0.43978626346083743		0.4006558737126361
H		-1.45183594		0.66404713		0.80316584		0.19407226298270652		-0.03908051034762998		-0.3767554647310447
H		0.77938126		1.48021293		0.37441741		-0.22830423848449188		-0.1427920225862681		-0.2581893013595803
9
Lattice="50.0 0.0 0.0 0.0 50.0 0.0 0.0 0.0 50.0" Properties=species:S:1:pos:R:3:forces:R:3 Energy=-7255.215035543647
C		0.65392471		0.30389101		0.96769718		0.21711690600109396		0.06864649932524926		2.733738507340203
C		-0.31566627		-0.58128113		0.15317884		0.10060705948472905		-0.2783159994445454		1.7908064404435267
C		-0.06968606		-0.30681146		-1.2602931		-1.7977483674514934		-0.22281904708351993		-3.241444779228071
O		-0.9700333		0.02011417		-2.04183886		0.8895104061317924		-0.017933547121700342		0.8723601198652492
O		0.71619415		0.53917525		2.19161148		-0.7276564821076009		-0.819973893749751		-2.6435683781816173
H		1.41862925		0.76062907		0.30570018		0.44795152133436267		0.33435206070824075		-0.29127183949954016
H		-0.11676907		-1.68394742		0.32095874		0.1726162531614845		0.5483148916651666		0.14201009870473458
H		-1.39925418		-0.4447552		0.39683487		0.3430549362446249		0.19765725491016095		0.03283118709873035
H		0.9247649		-0.54757736		-1.73960447		0.3545477672010066		0.19007178079069925		0.6045385920347224
9
Lattice="50.0 0.0 0.0 0.0 50.0 0.0 0.0 0.0 50.0" Properties=species:S:1:pos:R:3:forces:R:3 Energy=-7255.055529806734
C		-0.33780655		-0.42457571		0.95014918		-3.402951552908698		2.6332416453352927		-1.0089998012123882
C		-0.49476448		0.64765196		-0.23904319		3.7037306118453825		-1.5117580365635819		0.09604623107826232
C		0.37257733		0.25284		-1.44897141		1.946872708495447		-1.1677785830582643		2.842302668189681
O		1.55477481		-0.11972631		-1.1901005		-2.87093514104568		0.9306529411834534		-1.5327690398564078
O		-1.12987755		-0.32667333		1.86582761		0.9426787103950114		-0.5992259730753147		0.1676633315288772
H		0.33714286		-1.22379968		0.73055047		1.5020239429869322		-1.3173322983236304		0.11909179969377372
H		-1.46647707		0.9717692		-0.42924474		-2.52319025559579		0.3820967772012965		-0.32796508059817675
H		0.04617765		1.50305319		0.17463354		0.2776132655391767		0.6314270342208482		0.33900709433310605
H		-0.18164729		0.16454084		-2.4095558		0.4241576588661566		0.0186764930799008		-0.6943772031567278
9
Lattice="50.0 0.0 0.0 0.0 50.0 0.0 0.0 0.0 50.0" Properties=species:S:1:pos:R:3:forces:R:3 Energy=-7255.057523773114
C		-0.06712406		0.2538814		1.13100456		-1.2586064518175801		-1.2132936903457818		-0.10421385436666002
C		-0.65246296		-0.43525949		-0.20989318		1.826089174369306		-0.6772099990316401		2.875775859738033
C		0.47354217		-0.2770569		-1.15629084		-0.012343866089840824		1.602516691226847		-1.7048166164293168
O		0.41588788		0.56561313		-2.05446139		-0.1013222375292094		-0.6654107954272132		0.315325640493404
O		-0.19268193		-0.17155942		2.25414201		-0.2504666331775162		-0.47302419907350507		-0.08191411134484598
H		0.48254482		1.1758246		0.99817213		0.6962082913783196		1.3046843735785545		-0.663435365476339
H		-1.0918518		-1.38396938		0.12591141		0.6321605185195588		-0.7714280729458698		-0.07042086901196473
H		-1.48705104		0.09199365		-0.54040507		-1.8276131700339784		1.8322167301743364		-0.9913357571199605
H		1.48364112		-0.67529842		-0.95088446		0.29589437438094046		-0.9390510381557281		0.4250350735176498
9
Lattice="50.0 0.0 0.0 0.0 50.0 0.0 0.0 0.0 50.0" Properties=species:S:1:pos:R:3:forces:R:3 Energy=-7255.3119416019035
C		0.78564301		-0.73247955		0.49324365		0.8929512620182145		-1.089992326354101		-0.7073811228401081
C		-0.45982238		0.03971345		0.61746157		-0.2180418860603485		0.8559396155089206		-0.7790589013244078
C		-0.74895472		0.89368577		-0.65462445		1.4686751414076338		0.3814874771833897		2.1964577618344117
O		-1.43480202		0.41078382		-1.48400646		-1.6816947888951999		-0.650253628301025		-2.5586429908600117
O		1.83222942		-0.57518544		1.07783932		0.20568650142852002		0.20773654479200132		0.2204933300432728
H		0.62339248		-1.5874773		-0.24404382		0.39999031795841494		0.03600331128681659		0.0007901514115246578
H		-1.2023018		-0.7633885		0.50014208		-0.6943493323988826		0.21182860967722256		0.6908881133757326
H		-0.40785132		0.64009816		1.52171233		-0.3708868704324853		0.30463442806847213		0.6686259084595031
H		-0.28122638		1.92695642		-0.76529001		-0.0023303450258671376		-0.2573840318616969		0.2678277499000826
9
Lattice="50.0 0.0 0.0 0.0 50.0 0.0 0.0 0.0 50.0" Properties=species:S:1:pos:R:3:forces:R:3 Energy=-7255.331324035758
C		0.78056566		0.54608786		0.5456888		-0.2903536985745907		0.4182964179225268		0.0802355409604649
C		-0.31206047		0.60713713		-0.54630763		0.3229823341693515		1.7633294213306592		0.5933866893523488
C		-0.71893506		-0.70996812		-1.08846653		1.168513198642349		-0.15153238480617442		1.2713713103326552
O		-0.56264217		-1.75228568		-0.47714247		-0.11991198158976607		0.019824644890165187		-0.06457685445925392
O		0.8000884		1.31020594		1.48879869		0.04696886041489072		-0.11309367321991627		-0.0715769398198456
H		1.61443593		-0.21260224		0.40881696		-0.31771414387189606		-0.0037499024817144438		-0.18403565341269518
H		-1.22056981		1.12961228		-0.14748332		0.026639662248018524		-0.43716399538647194		0.5003801192293154
H		-0.07432797		1.46873159		-1.26562066		0.2961801782040079		-1.1797821893609088		-0.019415633805480354
H		-1.10604405		-0.64957747		-2.07648775		-1.133304461064427		-0.3161283903102276		-2.1057685783775093
9
Lattice="50.0 0.0 0.0 0.0 50.0 0.0 0.0 0.0 50.0" Properties=species:S:1:pos:R:3:forces:R:3 Energy=-7254.788253292076
C		1.06231285		0.14301184		0.34611272		3.992130374891201		4.0102903847759075		-2.356180807012959
C		0.05729004		-0.82726653		0.6235666		-0.8542148681124642		-2.6555982611581705		-0.9387777298938345
C		-1.24961122		-0.01230364		0.40736344		-1.6521831016155224		-0.107857313179114		-1.9457137066300068
O		-1.753993		0.28687384		-0.6755665		1.0967733537286786		-0.5966412945285963		1.5005706012360587
O		1.8867345		0.33592937		-0.61948935		-2.979635724626824		-1.5442072091604109		3.2688572122305084
H		0.89711478		0.97773191		1.09995558		0.747312976853572		0.2897584882017938		-0.10199931182541827
H		0.30596857		-1.75808298		0.02000136		-1.0512230737504487		0.6006415710323537		-0.017887164421375258
H		0.01242957		-1.12778163		1.67687966		0.34175128411752786		0.06037993998870804		0.49048250349409195
H		-1.77495571		0.32315686		1.35107693		0.35928877851427937		-0.056766408816596836		0.10064835140087212
9
Lattice="50.0 0.0 0.0 0.0 50.0 0.0 0.0 0.0 50.0" Properties=species:S:1:pos:R:3:forces:R:3 Energy=-7255.09943342935
C		-0.11102411		0.05224335		1.07058305		-0.9326995906908133		-0.20366705419219333		1.2800247692670301
C		0.14117483		0.90530052		-0.16689006		-0.13079870069611255		-1.067726007672876		0.396783432456116
C		0.16752728		-0.12257738		-1.36979221		-2.1677168912707794		3.015344644606145		2.976023736116586
O		-0.78214113		-0.77070394		-1.65741244		-1.811711462865654		-1.5442239727527678		-0.6760043573555626
O		0.60383677		-0.00888792		2.06578546		-0.5348009165443974		0.0896759117164304		-1.23491389081239
H		-1.11132569		-0.51886192		1.01006265		0.6041580687726319		0.08131190757155655		0.09553699839387284
H		-0.57576038		1.77094658		-0.16540186		-0.13202275147054524		-0.6926350236811025		-0.45266121661160663
H		1.09761249		1.31360077		0.08869885		1.4277274445505763		0.6984572867013994		-0.3724550376487977
H		1.06263702		-0.13971369		-1.86155641		3.677864851637156		-0.37653769229659156		-2.0123344338052482
9
Lattice="50.0 0.0 0.0 0.0 50.0 0.0 0.0 0.0 50.0" Properties=species:S:1:pos:R:3:forces:R:3 Energy=-7255.069737815046
C		1.05354365		-0.89854592		0.4755652		-0.2658362762657258		1.4918519391265046		-0.28582634593077544
C		0.37593438		-0.11108512		-0.65310597		-1.9093170679875506		2.820565996751636		0.38247766041782405
C		-1.22904453		0.13463116		-0.48379368		-0.4936763277925297		-1.940691725167536		-0.22488318009211103
O		-1.91589243		1.11521658		-0.64514909		1.2795624849256526		0.6770239025876529		0.0617805741255757
O		1.77093747		-0.31385927		1.27908615		-0.47855505326592784		-1.0866565257412535		-0.49870067466987256
H		0.72523402		-1.97761413		0.52683349		0.37810092299490927		-0.10077623807017198		0.2563295710492067
H		0.6718939		0.99797997		-0.66061003		0.504063430140164		-1.2371103842097135		-0.0649271929706894
H		0.34130725		-0.48623646		-1.69792314		0.46812917868321047		-0.44760802195723226		0.10834983369320897
H		-1.82747387		-0.82703465		-0.35051755		0.5175287599898603		-0.17659899474194832		0.2653997543776331
9
Lattice="50.0 0.0 0.0 0.0 50.0 0.0 0.0 0.0 50.0" Properties=species:S:1:pos:R:3:forces:R:3 Energy=-7255.016599555335
C		-0.57256788		-0.35620917		0.99918023		-0.0736765026294611		1.6844100280584653		-2.499362505988433
C		0.65561901		-0.00863864		0.20097089		0.5018414313998677		3.0506225962801174		0.6239289261854799
C		0.43021756		0.22743177		-1.28997921		0.8095799522678117		-1.4297941486622894		0.38115431364081076
O		0.09510708		1.23699798		-1.83156162		-0.6566201424302359		1.9006973933482023		-0.11795686335355762
O		-0.58318652		-1.10226336		1.91628758		-0.35067136644567826		-1.3394912991605334		2.020540932172854
H		-1.41892972		0.12874339		0.47220319		-1.3912769155866782		0.1577006154625988		0.5597770750723311
H		1.23278728		0.86482484		0.75924705		-1.189272233829196		-0.956660420595777		-1.1238180161405111
H		1.22276184		-0.83512446		0.45153799		2.2157465888339036		-2.4237853925089548		-0.05729852431877418
H		0.59311082		-0.65891608		-1.95749611		0.1343490855755417		-0.6436992693777036		0.21303461130773718
9
Lattice="50.0 0.0 0.0 0.0 50.0 0.0 0.0 0.0 50.0" Properties=species:S:1:pos:R:3:forces:R:3 Energy=-7255.237742507638
C		-0.09349387		0.10103722		1.42111328		0.7561231188122157		0.8595943871751123		0.5330094233108879
C		-0.49681471		-0.68931875		0.22952125		-0.25679679190857885		-1.9627693763016518		1.413843641956705
C		0.11346835		-0.41094878		-1.02845338		2.5560848460975145		2.4349770958676604		-3.4709032887482585
O		-0.39716066		0.04775315		-2.05940838		0.22512270405897827		-1.0842761984706901		1.5799290874994678
O		0.81503618		0.89750634		1.46014624		0.3184777100771368		0.37517901856267866		-0.10758271936565951
H		-0.63884521		-0.13677286		2.36268445		-0.5257574212663798		-0.2654652146631251		0.26341008051546183
H		-0.04998727		-1.68387073		0.5276282		-0.5017793649704969		-0.00689456728845523		-0.00928749296431752
H		-1.56499362		-0.79504682		0.18785645		-1.262867438177932		-0.14949987636598677		-0.07624873703706792
H		1.30122567		-0.48108634		-0.97984736		-1.308607362722458		-0.20084531993760502		-0.1261700980113437
9
Lattice="50.0 0.0 0.0 0.0 50.0 0.0 0.0 0.0 50.0" Properties=species:S:1:pos:R:3:forces:R:3 Energy=-7254.943490991554
C		0.64705115		0.8289281		0.20108635		-1.0343980320288677		-2.376330285071587		0.841737613192642
C		-0.2389406		-0.49135893		0.82966218		1.5091875505060983		1.1193775667822272		-0.6285608198822453
C		-0.65004985		-1.1412029		-0.42046793		-1.4183255374973194		-0.1805977285838325		-1.732064755942243
O		-1.26692758		-0.62778136		-1.36466768		0.6736626994759576		0.05259813643483263		1.3128786334952987
O		1.48073217		1.40653071		0.81231845		0.7058268910027183		0.9342055372115676		0.7986779093868567
H		0.5295379		0.87810208		-0.90809118		-0.42447498441350257		0.35747157424954756		-0.23103120187799472
H		0.38129926		-1.15910542		1.48530527		0.2656756337426487		0.3842123836943947		-0.503329225932579
H		-1.10701957		-0.33389788		1.46739925		-0.6948994456229157		1.0397964744104955		0.19665678726323763
H		-0.31622536		-2.16954494		-0.5491495		0.41774522483518256		-1.330733659127646		-0.054964939702973024
9
Lattice="50.0 0.0 0.0 0.0 50.0 0.0 0.0 0.0 50.0" Properties=species:S:1:pos:R:3:forces:R:3 Energy=-7255.164181479256
C		0.85159198		-0.76344419		0.70153811		-0.9233196922802828		0.11321256102828832		-3.138932120953268
C		0.53568744		0.07124116		-0.64985444		-0.4386497330366856		0.9698403065768433		1.5573735197169916
C		-1.0238121		0.08182977		-0.79910829		2.0804994683598284		0.8533806479934244		-0.2549030201928669
O		-1.75135492		1.01507296		-0.9552282		-0.5993312854592013		1.5960201821237758		0.08590549183180055
O		1.43098524		-0.42434703		1.68230607		0.5590445163707446		0.5212502260710429		0.9120883939334945
H		0.38438776		-1.78086138		0.52274784		0.1142017158214738		-0.23304010759152025		0.5699595690334981
H		1.00061353		1.11740654		-0.72958791		-0.5215491425200336		-1.0910830397206146		0.284403651729119
H		0.78838735		-0.5414783		-1.52859741		0.5271072504055522		-0.33782685515587624		-0.11918790752848281
H		-1.42073058		-0.89785693		-0.89937998		-0.7980031490834579		-2.391753869903301		0.10329242242971415
9
Lattice="50.0 0.0 0.0 0.0 50.0 0.0 0.0 0.0 50.0" Properties=species:S:1:pos:R:3:forces:R:3 Energy=-7255.057237096206
C		0.70519341		-0.8426551		0.70797528		0.3352264414580497		1.0833169713178474		-7.023569662243964
C		0.59413511		0.53229678		-0.16538216		0.164795471684276		-0.6975878938916475		-0.04642008416448131
C		-0.84759322		0.5489916		-0.6040863		-0.1734181288032465		-0.6468192001724085		-0.4296481467395603
O		-1.17314996		0.61480265		-1.78596104		-0.392993677876007		0.041090804456841545		1.4837147576990737
O		0.75940768		-0.82537071		1.85259389		0.1525629343596279		-0.4397633292209871		5.856980008691481
H		0.70377762		-1.80205986		0.01423829		-0.0321463994931548		0.8187776623111008		0.7626493498673798
H		0.79517884		1.46165439		0.43281707		0.08473281169775006		-0.6255899102245049		0.1707904099902619
H		1.21257219		0.53680319		-1.10523395		-0.09463654665840439		-0.1536020713975096		0.5392923765886263
H		-1.52854193		0.30320938		0.33322782		-0.04412285494682852		0.6201769668212677		-1.3137890611108813
9
Lattice="50.0 0.0 0.0 0.0 50.0 0.0 0.0 0.0 50.0" Properties=species:S:1:pos:R:3:forces:R:3 Energy=-7254.902073616484
C		-0.56485461		0.15255158		1.1346689		-1.0555481320006066		0.9766231851456687		-4.104351569977619
C		-0.73911589		-0.59550432		-0.22413129		-1.9083224624557462		-3.267252689616047		1.4789009841674416
C		0.01206803		-0.26322432		-1.44275602		3.4961209252814323		2.878870645144203		0.21218943828939674
O		0.92484203		0.59762631		-1.44584563		-1.8961557453710272		-1.4327463406892997		-0.10418032718194611
O		0.27111866		0.08213592		1.95413036		2.326613686749966		-1.2915408429956368		2.289997578744996
H		-1.22270288		1.00314501		1.08861058		-1.57660969052454		1.3887876249657944		0.5488427905582234
H		-0.42529086		-1.67879623		-0.03798229		0.0557887211433365		0.5060636969471988		-0.1031344024318217
H		-1.87051337		-0.80809087		-0.42745323		1.283869082655393		0.6926240707818019		0.1274059758601387
H		-0.07257172		-0.89074747		-2.34942492		-0.7257563854782082		-0.45142940110574487		-0.34567046802881013
9
Lattice="50.0 0.0 0.0 0.0 50.0 0.0 0.0 0.0 50.0" Properties=species:S:1:pos:R:3:forces:R:3 Energy=-7255.088733940046
C		0.72514892		-0.74852815		0.82387097		-0.25744080181863577		1.4814420053831445		0.10975740980850666
C		-0.74101104		-0.5911001		0.46103041		1.0109202095564467		-1.008679441763358		-0.6587916447052116
C		-0.83540975		0.56473241		-0.4378138		-1.719191499719534		1.8167161150930808		-1.6115616777446755
O		-0.69716813		0.5206751		-1.64164858		0.6191385496922603		-0.5048482850792567		-0.4168532063179549
O		1.4956184		0.1821142		0.85687944		0.3456336498320997		1.0808992087858245		-0.3194038728438276
H		1.13492692		-1.65829829		1.16450843		0.26073577331390235		-2.741274564857655		0.5877937687305552
H		-1.13840227		-1.46868565		-0.11994419		0.058330359423788745		0.15801763247757017		0.7447473244699581
H		-1.24270141		-0.32286333		1.38305344		-0.7143996687211174		-0.3823707539500016		0.7972556779837623
H		-1.28566608		1.52869958		-0.06467997		0.39627353128491477		0.1000980839106518		0.7670562206188873
9
Lattice="50.0 0.0 0.0 0.0 50.0 0.0 0.0 0.0 50.0" Properties=species:S:1:pos:R:3:forces:R:3 Energy=-7255.21993203669
C		-0.61713543		0.20948578		1.39086801		1.0390357878407517		1.229466288939065		0.13424233337390656
C		0.23194186		0.80367831		0.27088239		1.8120484316408538		-0.7384171657388954		-0.3592834306197851
C		0.77974455		-0.26426241		-0.81721244		-2.3487029078481316		0.8520464511612352		3.963308514579219
O		0.97390903		0.01991913		-1.93529805		0.9789025194855908		0.6000605531487915		-3.17485454533586
O		-1.33861532		-0.73088969		1.15284798		-0.30324058164384715		-0.2250400688046297		0.6339544800120657
H		-0.50668725		0.79892748		2.43194912		-0.4400882652335749		-1.0709389609785434		-1.0970473304773836
H		-0.4046948		1.49138457		-0.29457556		-0.15189321341834863		0.5308983933813473		-0.24920530140781114
H		1.19217203		1.34125371		0.58871503		-1.054013132014571		-0.12688702440594718		0.08336025400697716
H		0.80524378		-1.26928931		-0.36958086		0.4679514126133393		-1.0511884667024236		0.06552497444660857
9
Lattice="50.0 0.0 0.0 0.0 50.0 0.0 0.0 0.0 50.0" Properties=species:S:1:pos:R:3:forces:R:3 Energy=-7255.122662301964
C		0.902096		-0.61992652		0.44224329		0.03487176880272183		-1.0513132680479764		-0.0832988046423558
C		-0.58636111		-0.23408226		0.70364793		0.6990394358703353		-0.7415063461402585		2.24958734528461
C		-1.41711738		0.21585724		-0.40760671		2.3670741081432984		0.5555570720957477		-2.448944562157129
O		-0.83130041		0.49757843		-1.46438044		-1.4024980323651024		-0.20978093172861373		0.6476823709126046
O		1.83595574		0.07795833		0.74301902		0.13307325278422721		1.2040177673455144		0.3743018610214977
H		1.23956935		-1.63424709		0.07046046		-1.1148483629441643		-0.2060890847553993		-0.3414685141961447
H		-1.13040125		-0.87624902		1.44877702		0.2490518579734763		-0.531252125748904		-0.5591792421743496
H		-0.44241152		0.61311478		1.38674193		-0.011956143739008081		0.9264247106768786		0.08313142582909842
H		-2.49142802		0.36670269		-0.25302905		-0.953807833103722		0.05394215488094872		0.07818817154423074
9
Lattice="50.0 0.0 0.0 0.0 50.0 0.0 0.0 0.0 50.0" Properties=species:S:1:pos:R:3:forces:R:3 Energy=-7255.064819156126
C		0.36415838		0.42184076		1.25352998		1.9834960155891586		-0.5884668321058935		-0.3747631683436888
C		-0.6863347		0.52129687		0.16495196		-2.9946426879086117		0.5376427054033391		-0.07282839855356131
C		-0.29698824		-0.31853823		-0.98804729		0.5187054510447814		-0.4685256942067212		-1.7138554322996518
O		-0.98893787		-1.19339064		-1.47774337		-0.09128377676495006		0.24462745229867525		0.3303468476864886
O		1.58770954		0.6384559		1.09916688		-2.9483730646988433		-0.07518913401833323		0.29798653241356393
H		-0.05861666		-0.14499187		2.1255842		0.34154014512913006		0.2908981553717548		0.5659258681891514
H		-1.75812002		0.05016666		0.29464668		1.54535314982199		0.5875848923129051		1.115412103014745
H		-1.01802275		1.57715641		-0.12807076		0.9937033317190376		-0.6296542586180685		-0.02226364473397789
H		0.70667721		-0.11567152		-1.41199461		0.6515014874903695		0.10108276498440462		-0.12596065595100664
9
Lattice="50.0 0.0 0.0 0.0 50.0 0.0 0.0 0.0 50.0" Properties=species:S:1:pos:R:3:forces:R:3 Energy=-7255.054857829454
C		0.15120856		-0.03706224		1.40263984		1.7400876775469214		0.47882702455419773		-2.1923725360834956
C		0.36797982		-0.71111462		0.04558253		-0.8788765807285489		4.496752094363327		0.013887607826491982
C		-0.73760145		-0.14211658		-0.98433039		0.8433537571932151		-1.6026191239752368		3.500817353666566
O		-0.5111962		-0.16439899		-2.13689545		-0.01933978626337448		0.47669074639199666		-2.8976865948574533
O		0.71652271		0.99569531		1.70114959		-0.42759578938326903		-0.049793165772601275		0.6778361654860287
H		-0.55864704		-0.61489348		1.9750254		-1.170074063925794		-0.30671856425935423		1.5891313741063142
H		1.34736797		-0.41687047		-0.34107549		0.3825067138831053		-0.12798380557582936		-0.31516808329407353
H		0.25989643		-1.71073638		0.2323485		-0.4138288691373346		-3.6077442360478065		-0.007541456834009063
H		-1.70679014		0.15660148		-0.47734315		-0.056233110606983265		0.24258908174336888		-0.368903778594307
9
Lattice="50.0 0.0 0.0 0.0 50.0 0.0 0.0 0.0 50.0" Properties=species:S:1:pos:R:3:forces:R:3 Energy=-7254.980661162064
C		-0.09350576		-1.01371054		1.0167299		0.7936847757014176		1.1888531954423343		-0.7679727160378385
C		-0.06386452		0.31993588		0.18392883		-2.0665303565643613		0.05966743589147482		0.27045675426462834
C		-0.23704962		0.43977051		-1.36838887		0.658152314202837		-0.09649463146277977		1.833376657636901
O		0.41764139		1.13166843		-2.08995123		1.195006976499212		0.853023624613871		-0.7469316308384825
O		-0.02678353		-0.92886685		2.23315334		-0.28673168276217614		-0.9304936356339998		-1.1001917381738122
H		0.02811099		-1.93705832		0.3284833		-0.39193073242321347		0.04633384936576161		1.066952362743396
H		-1.06529676		0.84771761		0.41476599		0.7706755624840548		-0.4910971514064929		0.28008995775476125
H		0.67510866		0.91023922		0.76856897		0.27143130519207953		0.3188142674758372		-0.8528419504672542
H		-1.14379001		-0.01254867		-1.78625188		-0.9437581623298498		-0.9486069542860066		0.017062354539762896
9
Lattice="50.0 0.0 0.0 0.0 50.0 0.0 0.0 0.0 50.0" Properties=species:S:1:pos:R:3:forces:R:3 Energy=-7254.969553004963